MPI startup(): PMI server not found. Please set I_MPI_PMI_LIBRARY variable if it is not a singleton case.

     Program PWSCF v.7.3.1 starts on 10Jan2026 at  6:38:29 

     This program is part of the open-source Quantum ESPRESSO suite
     for quantum simulation of materials; please cite
         "P. Giannozzi et al., J. Phys.:Condens. Matter 21 395502 (2009);
         "P. Giannozzi et al., J. Phys.:Condens. Matter 29 465901 (2017);
         "P. Giannozzi et al., J. Chem. Phys. 152 154105 (2020);
          URL http://www.quantum-espresso.org", 
     in publications or presentations arising from this work. More details at
     http://www.quantum-espresso.org/quote

     Parallel version (MPI), running on     1 processors

     MPI processes distributed on     1 nodes
     157507 MiB available memory on the printing compute node when the environment starts
 
     Reading input from CuO_slab_nscf.in

     Current dimensions of program PWSCF are:
     Max number of different atomic species (ntypx) = 10
     Max number of k-points (npk) =  40000
     Max angular momentum in pseudopotentials (lmaxx) =  4
     file Cu.pbe-dn-kjpaw_psl.1.0.0.UPF: wavefunction(s)  4S 3D renormalized
     file O.pbe-n-kjpaw_psl.0.1.UPF: wavefunction(s)  2P renormalized

     Atomic positions and unit cell read from directory:
     ./tmp/CuO_slab.save/
 
     [opt_tetra]  Optimized tetrahedron method is used.
 
     Subspace diagonalization in iterative solution of the eigenvalue problem:
     a serial algorithm will be used

 
     G-vector sticks info
     --------------------
     sticks:   dense  smooth     PW     G-vecs:    dense   smooth      PW
     Sum        4573    2281    645              1860957   657963   99181
 
     Using Slab Decomposition
 


     bravais-lattice index     =            0
     lattice parameter (alat)  =       7.6739  a.u.
     unit-cell volume          =    5703.8646 (a.u.)^3
     number of atoms/cell      =           32
     number of atomic types    =            2
     number of electrons       =       272.00
     number of Kohn-Sham states=          163
     kinetic-energy cutoff     =      90.0000  Ry
     charge density cutoff     =     720.0000  Ry
     Exchange-correlation= SLA  PW   PBX  PBC
                           (   1   4   3   4   0   0   0)
     Hubbard projectors: ortho-atomic
     Hubbard parameters of DFT+U (Dudarev formulation) in eV:
     U(Cu-3d) =  5.0000

     Internal variables: lda_plus_u = T, lda_plus_u_kind = 0

     celldm(1)=   7.673918  celldm(2)=   0.000000  celldm(3)=   0.000000
     celldm(4)=   0.000000  celldm(5)=   0.000000  celldm(6)=   0.000000

     crystal axes: (cart. coord. in units of alat)
               a(1) = (  -0.722969   0.000000   0.690881 )  
               a(2) = (   0.684632  -1.269632  -0.007284 )  
               a(3) = (   5.898761   3.808895   6.172731 )  

     reciprocal axes: (cart. coord. in units 2 pi/alat)
               b(1) = ( -0.618724 -0.338228  0.799967 )  
               b(2) = (  0.208489 -0.676457  0.218173 )  
               b(3) = (  0.069496  0.037058  0.072724 )  


     PseudoPot. # 1 for Cu read from file:
     ./SSSP/Cu.pbe-dn-kjpaw_psl.1.0.0.UPF
     MD5 check sum: cfffd1f38ee05704b3e17f46f1730a6f
     Pseudo is Projector augmented-wave + core cor, Zval = 11.0
     Generated using &quot;atomic&quot; code by A. Dal Corso  v.6.3
     Shape of augmentation charge: PSQ
     Using radial grid of 1199 points,  6 beta functions with: 
                l(1) =   0
                l(2) =   0
                l(3) =   1
                l(4) =   1
                l(5) =   2
                l(6) =   2
     Q(r) pseudized with 0 coefficients 


     PseudoPot. # 2 for O  read from file:
     ./SSSP/O.pbe-n-kjpaw_psl.0.1.UPF
     MD5 check sum: 0234752ac141de4415c5fc33072bef88
     Pseudo is Projector augmented-wave + core cor, Zval =  6.0
     Generated using "atomic" code by A. Dal Corso  v.5.0.99 svn rev. 10869
     Shape of augmentation charge: BESSEL
     Using radial grid of 1095 points,  4 beta functions with: 
                l(1) =   0
                l(2) =   0
                l(3) =   1
                l(4) =   1
     Q(r) pseudized with 0 coefficients 


     atomic species   valence    mass     pseudopotential
     Cu               11.00    63.54600     Cu( 1.00)
     O                 6.00    15.99900     O ( 1.00)

     Starting magnetic structure 
     atomic species   magnetization
     Cu              0.500
     O               0.000

     No symmetry found



   Cartesian axes

     site n.     atom                  positions (alat units)
         1        Cu     tau(   1) = (   1.8301894   0.6395908   2.4748797  )
         2        Cu     tau(   2) = (   2.1767697   0.0245254   2.1693868  )
         3        Cu     tau(   3) = (   2.5561940   0.6378959   2.5166857  )
         4        Cu     tau(   4) = (   1.4768144   1.2677202   2.8427982  )
         5        Cu     tau(   5) = (   2.5462686   0.6295101   3.2408207  )
         6        Cu     tau(   6) = (   2.2045646   1.2643192   2.8775812  )
         7        Cu     tau(   7) = (   3.2699517   0.6338624   3.2779904  )
         8        Cu     tau(   8) = (   2.9277057   1.2674889   2.9176398  )
         9        Cu     tau(   9) = (   2.5849561   1.9057788   4.0131952  )
        10        Cu     tau(  10) = (   2.9282522   1.2696626   3.6458953  )
        11        Cu     tau(  11) = (   3.3007341   1.8963305   4.0497791  )
        12        Cu     tau(  12) = (   3.6537605   1.2707611   3.6859976  )
        13        Cu     tau(  13) = (   4.0454210   1.9071355   4.0948537  )
        14        Cu     tau(  14) = (   3.6588539   1.2585526   4.4136342  )
        15        Cu     tau(  15) = (   3.9661216   1.9154663   4.7376024  )
        16        Cu     tau(  16) = (   3.7156487   2.5337376   4.4254535  )
        17        O      tau(  17) = (   1.8237557   0.9785584   2.1565668  )
        18        O      tau(  18) = (   1.8369850   0.2987451   2.1789343  )
        19        O      tau(  19) = (   1.8342613   0.9508086   2.8440835  )
        20        O      tau(  20) = (   2.5567988   0.3409763   2.1491408  )
        21        O      tau(  21) = (   2.5644176   0.9484926   2.8820680  )
        22        O      tau(  22) = (   2.5317113   0.3121523   2.8711395  )
        23        O      tau(  23) = (   2.5659031   0.9504244   3.6068004  )
        24        O      tau(  24) = (   2.5662850   1.5836983   2.9190368  )
        25        O      tau(  25) = (   3.2901505   0.9536840   3.6444542  )
        26        O      tau(  26) = (   2.5669414   1.5869662   3.6473600  )
        27        O      tau(  27) = (   4.0066267   0.9488773   3.6858166  )
        28        O      tau(  28) = (   3.2935576   1.5873888   3.6834874  )
        29        O      tau(  29) = (   3.3088430   2.1986936   4.4118390  )
        30        O      tau(  30) = (   3.3020534   1.5817856   4.4141579  )
        31        O      tau(  31) = (   4.0723148   2.2541261   4.4333770  )
        32        O      tau(  32) = (   4.0426730   1.5608644   4.4329226  )

     number of k points=    74 (tetrahedron method)
                       cart. coord. in units 2pi/alat
        k(    1) = (   0.0000000   0.0000000   0.0000000), wk =   0.0069444
        k(    2) = (   0.0173741  -0.0563714   0.0181811), wk =   0.0138889
        k(    3) = (   0.0347482  -0.1127428   0.0363621), wk =   0.0138889
        k(    4) = (   0.0521224  -0.1691142   0.0545432), wk =   0.0138889
        k(    5) = (   0.0694965  -0.2254856   0.0727243), wk =   0.0138889
        k(    6) = (   0.0868706  -0.2818569   0.0909054), wk =   0.0138889
        k(    7) = (  -0.1042447   0.3382283  -0.1090864), wk =   0.0069444
        k(    8) = (  -0.0515603  -0.0281857   0.0666639), wk =   0.0138889
        k(    9) = (  -0.0341862  -0.0845571   0.0848450), wk =   0.0138889
        k(   10) = (  -0.0168121  -0.1409285   0.1030261), wk =   0.0138889
        k(   11) = (   0.0005620  -0.1972999   0.1212071), wk =   0.0138889
        k(   12) = (   0.0179362  -0.2536713   0.1393882), wk =   0.0138889
        k(   13) = (   0.0353103  -0.3100426   0.1575693), wk =   0.0138889
        k(   14) = (  -0.1558051   0.3100426  -0.0424225), wk =   0.0138889
        k(   15) = (  -0.1384310   0.2536712  -0.0242414), wk =   0.0138889
        k(   16) = (  -0.1210568   0.1972999  -0.0060604), wk =   0.0138889
        k(   17) = (  -0.1036827   0.1409285   0.0121207), wk =   0.0138889
        k(   18) = (  -0.0863086   0.0845571   0.0303018), wk =   0.0138889
        k(   19) = (  -0.0689345   0.0281857   0.0484829), wk =   0.0138889
        k(   20) = (  -0.1031207  -0.0563714   0.1333278), wk =   0.0138889
        k(   21) = (  -0.0857466  -0.1127428   0.1515089), wk =   0.0138889
        k(   22) = (  -0.0683724  -0.1691142   0.1696900), wk =   0.0138889
        k(   23) = (  -0.0509983  -0.2254856   0.1878711), wk =   0.0138889
        k(   24) = (  -0.0336242  -0.2818569   0.2060521), wk =   0.0138889
        k(   25) = (  -0.0162501  -0.3382283   0.2242332), wk =   0.0138889
        k(   26) = (  -0.2073654   0.2818569   0.0242414), wk =   0.0138889
        k(   27) = (  -0.1899913   0.2254856   0.0424225), wk =   0.0138889
        k(   28) = (  -0.1726172   0.1691142   0.0606036), wk =   0.0138889
        k(   29) = (  -0.1552431   0.1127428   0.0787846), wk =   0.0138889
        k(   30) = (  -0.1378689   0.0563714   0.0969657), wk =   0.0138889
        k(   31) = (  -0.1204948  -0.0000000   0.1151468), wk =   0.0138889
        k(   32) = (  -0.1546810  -0.0845571   0.1999918), wk =   0.0138889
        k(   33) = (  -0.1373069  -0.1409285   0.2181728), wk =   0.0138889
        k(   34) = (  -0.1199328  -0.1972999   0.2363539), wk =   0.0138889
        k(   35) = (  -0.1025586  -0.2536713   0.2545350), wk =   0.0138889
        k(   36) = (  -0.0851845  -0.3100426   0.2727161), wk =   0.0138889
        k(   37) = (  -0.0678104  -0.3664140   0.2908971), wk =   0.0138889
        k(   38) = (  -0.2589258   0.2536712   0.0909053), wk =   0.0138889
        k(   39) = (  -0.2415516   0.1972999   0.1090864), wk =   0.0138889
        k(   40) = (  -0.2241775   0.1409285   0.1272675), wk =   0.0138889
        k(   41) = (  -0.2068034   0.0845571   0.1454486), wk =   0.0138889
        k(   42) = (  -0.1894293   0.0281857   0.1636296), wk =   0.0138889
        k(   43) = (  -0.1720551  -0.0281857   0.1818107), wk =   0.0138889
        k(   44) = (  -0.2062414  -0.1127428   0.2666557), wk =   0.0138889
        k(   45) = (  -0.1888672  -0.1691142   0.2848368), wk =   0.0138889
        k(   46) = (  -0.1714931  -0.2254856   0.3030178), wk =   0.0138889
        k(   47) = (  -0.1541190  -0.2818570   0.3211989), wk =   0.0138889
        k(   48) = (  -0.1367449  -0.3382283   0.3393800), wk =   0.0138889
        k(   49) = (  -0.1193707  -0.3945997   0.3575611), wk =   0.0138889
        k(   50) = (  -0.3104861   0.2254855   0.1575693), wk =   0.0138889
        k(   51) = (  -0.2931120   0.1691142   0.1757503), wk =   0.0138889
        k(   52) = (  -0.2757379   0.1127428   0.1939314), wk =   0.0138889
        k(   53) = (  -0.2583637   0.0563714   0.2121125), wk =   0.0138889
        k(   54) = (  -0.2409896  -0.0000000   0.2302936), wk =   0.0138889
        k(   55) = (  -0.2236155  -0.0563714   0.2484746), wk =   0.0138889
        k(   56) = (  -0.2578017  -0.1409285   0.3333196), wk =   0.0138889
        k(   57) = (  -0.2404276  -0.1972999   0.3515007), wk =   0.0138889
        k(   58) = (  -0.2230535  -0.2536713   0.3696818), wk =   0.0138889
        k(   59) = (  -0.2056793  -0.3100426   0.3878628), wk =   0.0138889
        k(   60) = (  -0.1883052  -0.3664140   0.4060439), wk =   0.0138889
        k(   61) = (  -0.1709311  -0.4227854   0.4242250), wk =   0.0138889
        k(   62) = (  -0.3620464   0.1972999   0.2242332), wk =   0.0138889
        k(   63) = (  -0.3446723   0.1409285   0.2424143), wk =   0.0138889
        k(   64) = (  -0.3272982   0.0845571   0.2605953), wk =   0.0138889
        k(   65) = (  -0.3099241   0.0281857   0.2787764), wk =   0.0138889
        k(   66) = (  -0.2925499  -0.0281857   0.2969575), wk =   0.0138889
        k(   67) = (  -0.2751758  -0.0845571   0.3151385), wk =   0.0138889
        k(   68) = (   0.3093620   0.1691142  -0.3999835), wk =   0.0069444
        k(   69) = (   0.3267362   0.1127428  -0.3818025), wk =   0.0138889
        k(   70) = (   0.3441103   0.0563714  -0.3636214), wk =   0.0138889
        k(   71) = (   0.3614844   0.0000000  -0.3454403), wk =   0.0138889
        k(   72) = (   0.3788585  -0.0563714  -0.3272593), wk =   0.0138889
        k(   73) = (   0.3962327  -0.1127428  -0.3090782), wk =   0.0138889
        k(   74) = (   0.2051173   0.5073425  -0.5090700), wk =   0.0069444

     Dense  grid:  1860957 G-vectors     FFT dimensions: (  72,  96, 625)

     Smooth grid:   657963 G-vectors     FFT dimensions: (  48,  72, 450)

     Estimated max dynamical RAM per process >       7.24 GB
     Generating pointlists ...
     new r_m :   0.1802 (alat units)  1.3825 (a.u.) for type    1
     new r_m :   0.1802 (alat units)  1.3825 (a.u.) for type    2

     The potential is recalculated from file :
     ./tmp/CuO_slab.save/charge-density


     negative rho (up, down):  3.873E-04 2.839E-04

     STARTING HUBBARD OCCUPATIONS:

     =================== HUBBARD OCCUPATIONS ===================
     ------------------------ ATOM    1 ------------------------
     Tr[ns(  1)] (up, down, total) =   4.67303  4.61850  9.29152
     Atomic magnetic moment for atom   1 =   0.05453
     SPIN  1
     eigenvalues:
       0.703  0.975  0.997  0.999  0.999
     eigenvectors (columns):
      -0.067 -0.519 -0.840  0.129  0.062
       0.033 -0.010  0.152  0.591  0.791
      -0.996 -0.010  0.087  0.001  0.024
      -0.052  0.854 -0.505  0.114  0.024
       0.005  0.032 -0.096 -0.788  0.608
     occupation matrix ns (before diag.):
       0.990  0.001 -0.020  0.009  0.000
       0.001  0.998  0.010  0.001  0.000
      -0.020  0.010  0.706 -0.015  0.002
       0.009  0.001 -0.015  0.980 -0.001
       0.000  0.000  0.002 -0.001  0.999
     SPIN  2
     eigenvalues:
       0.668  0.973  0.988  0.993  0.995
     eigenvectors (columns):
      -0.001  0.501  0.327  0.445  0.667
       0.033  0.046  0.620 -0.764  0.171
      -0.999  0.004  0.049 -0.008 -0.023
      -0.003 -0.864  0.224  0.218  0.395
      -0.043 -0.001 -0.676 -0.414  0.608
     occupation matrix ns (before diag.):
       0.989 -0.001 -0.001  0.009  0.002
      -0.001  0.991  0.010  0.000  0.003
      -0.001  0.010  0.669 -0.001 -0.014
       0.009  0.000 -0.001  0.978  0.001
       0.002  0.003 -0.014  0.001  0.991
     ------------------------ ATOM    2 ------------------------
     Tr[ns(  2)] (up, down, total) =   4.92239  4.44312  9.36551
     Atomic magnetic moment for atom   2 =   0.47927
     SPIN  1
     eigenvalues:
       0.948  0.987  0.993  0.996  0.998
     eigenvectors (columns):
       0.619  0.192 -0.758 -0.045  0.057
      -0.096  0.683  0.046 -0.096 -0.716
       0.059 -0.538 -0.077 -0.718 -0.431
      -0.208 -0.430 -0.353  0.638 -0.490
       0.749 -0.148  0.540  0.259 -0.242
     occupation matrix ns (before diag.):
       0.975  0.002 -0.001  0.006 -0.021
       0.002  0.993  0.004  0.002  0.005
      -0.001  0.004  0.994 -0.001 -0.002
       0.006  0.002 -0.001  0.992  0.008
      -0.021  0.005 -0.002  0.008  0.968
     SPIN  2
     eigenvalues:
       0.503  0.970  0.984  0.990  0.996
     eigenvectors (columns):
       0.207 -0.717 -0.218 -0.629  0.032
       0.082  0.132  0.700 -0.335  0.611
      -0.015 -0.037 -0.552  0.268  0.789
       0.125  0.682 -0.396 -0.601 -0.039
       0.967  0.053  0.030  0.245 -0.041
     occupation matrix ns (before diag.):
       0.958 -0.005  0.001 -0.003 -0.097
      -0.005  0.986  0.006 -0.005 -0.039
       0.001  0.006  0.992  0.000  0.007
      -0.003 -0.005  0.000  0.972 -0.060
      -0.097 -0.039  0.007 -0.060  0.534
     ------------------------ ATOM    3 ------------------------
     Tr[ns(  3)] (up, down, total) =   4.94756  4.38981  9.33737
     Atomic magnetic moment for atom   3 =   0.55775
     SPIN  1
     eigenvalues:
       0.972  0.979  0.998  0.999  0.999
     eigenvectors (columns):
       0.645  0.082 -0.151 -0.742  0.065
       0.028  0.056  0.106  0.096  0.988
      -0.151  0.987 -0.017 -0.023 -0.048
      -0.748 -0.126 -0.082 -0.639  0.099
       0.031  0.013  0.979 -0.179 -0.090
     occupation matrix ns (before diag.):
       0.987 -0.001  0.001  0.013 -0.001
      -0.001  0.999 -0.001  0.001 -0.000
       0.001 -0.001  0.979 -0.001 -0.000
       0.013  0.001 -0.001  0.983  0.001
      -0.001 -0.000 -0.000  0.001  0.998
     SPIN  2
     eigenvalues:
       0.439  0.967  0.993  0.995  0.996
     eigenvectors (columns):
      -0.033  0.626  0.081 -0.149  0.760
       0.024  0.016  0.946  0.320 -0.050
       0.999  0.013 -0.016 -0.022  0.031
      -0.009 -0.778  0.064 -0.052  0.623
       0.010  0.051 -0.308  0.934  0.174
     occupation matrix ns (before diag.):
       0.984 -0.000  0.018  0.014 -0.001
      -0.000  0.993 -0.013  0.000  0.000
       0.018 -0.013  0.440  0.006 -0.005
       0.014  0.000  0.006  0.978  0.001
      -0.001  0.000 -0.005  0.001  0.995
     ------------------------ ATOM    4 ------------------------
     Tr[ns(  4)] (up, down, total) =   4.94697  4.37309  9.32007
     Atomic magnetic moment for atom   4 =   0.57388
     SPIN  1
     eigenvalues:
       0.973  0.983  0.996  0.997  0.999
     eigenvectors (columns):
      -0.987 -0.028 -0.007  0.142  0.069
      -0.038 -0.150 -0.579 -0.586  0.546
      -0.028 -0.086  0.814 -0.381  0.429
       0.144  0.102 -0.045  0.675  0.715
      -0.051  0.979 -0.013 -0.189  0.049
     occupation matrix ns (before diag.):
       0.973 -0.001 -0.001  0.004 -0.001
      -0.001  0.997  0.001  0.001  0.002
      -0.001  0.001  0.996  0.001  0.001
       0.004  0.001  0.001  0.997 -0.001
      -0.001  0.002  0.001 -0.001  0.983
     SPIN  2
     eigenvalues:
       0.425  0.965  0.993  0.994  0.997
     eigenvectors (columns):
      -0.002 -0.988  0.078  0.092 -0.100
       0.001 -0.029 -0.928  0.084 -0.362
       0.001 -0.043  0.066 -0.922 -0.379
       0.091  0.147  0.358  0.364 -0.842
       0.996 -0.016 -0.031 -0.032  0.077
     occupation matrix ns (before diag.):
       0.965 -0.001 -0.001  0.005  0.001
      -0.001  0.994  0.000  0.001 -0.001
      -0.001  0.000  0.994  0.001 -0.001
       0.005  0.001  0.001  0.990 -0.052
       0.001 -0.001 -0.001 -0.052  0.429
     ------------------------ ATOM    5 ------------------------
     Tr[ns(  5)] (up, down, total) =   4.96065  4.36629  9.32694
     Atomic magnetic moment for atom   5 =   0.59435
     SPIN  1
     eigenvalues:
       0.973  0.991  0.999  0.999  0.999
     eigenvectors (columns):
      -0.624 -0.033  0.251 -0.729 -0.118
      -0.022  0.065 -0.032  0.164 -0.984
      -0.068  0.995 -0.001  0.002  0.068
       0.774  0.062  0.290 -0.547 -0.114
      -0.074 -0.008  0.923  0.377  0.034
     occupation matrix ns (before diag.):
       0.989 -0.000 -0.001  0.012 -0.001
      -0.000  0.999 -0.001  0.000 -0.000
      -0.001 -0.001  0.991  0.001 -0.000
       0.012  0.000  0.001  0.984  0.001
      -0.001 -0.000 -0.000  0.001  0.998
     SPIN  2
     eigenvalues:
       0.412  0.968  0.994  0.995  0.997
     eigenvectors (columns):
      -0.006  0.611  0.077  0.070 -0.785
      -0.057  0.019 -0.981 -0.159 -0.095
      -0.998 -0.015  0.056  0.011  0.002
       0.014 -0.787  0.019  0.144 -0.599
       0.000  0.075 -0.169  0.974  0.130
     occupation matrix ns (before diag.):
       0.986 -0.000 -0.003  0.014 -0.001
      -0.000  0.992 -0.033  0.001 -0.000
      -0.003 -0.033  0.414  0.008  0.000
       0.014  0.001  0.008  0.979  0.002
      -0.001 -0.000  0.000  0.002  0.995
     ------------------------ ATOM    6 ------------------------
     Tr[ns(  6)] (up, down, total) =   4.95889  4.36747  9.32636
     Atomic magnetic moment for atom   6 =   0.59142
     SPIN  1
     eigenvalues:
       0.973  0.990  0.998  0.999  0.999
     eigenvectors (columns):
      -0.979 -0.076 -0.076  0.034  0.172
      -0.083  0.010  0.549  0.745 -0.371
      -0.073  0.036  0.812 -0.573  0.069
       0.155  0.031  0.175  0.341  0.910
      -0.076  0.996 -0.046  0.005 -0.014
     occupation matrix ns (before diag.):
       0.974 -0.002 -0.002  0.004 -0.001
      -0.002  0.998 -0.001  0.000 -0.000
      -0.002 -0.001  0.998  0.000 -0.000
       0.004  0.000  0.000  0.998  0.000
      -0.001 -0.000 -0.000  0.000  0.990
     SPIN  2
     eigenvalues:
       0.413  0.968  0.994  0.995  0.996
     eigenvectors (columns):
       0.022  0.983 -0.072  0.094 -0.140
      -0.059  0.087  0.987 -0.120  0.014
      -0.058  0.079 -0.130 -0.986 -0.046
       0.007 -0.141  0.031  0.030 -0.989
       0.996 -0.011  0.052 -0.066  0.008
     occupation matrix ns (before diag.):
       0.969 -0.001 -0.001  0.004 -0.012
      -0.001  0.992 -0.002  0.001  0.034
      -0.001 -0.002  0.993  0.001  0.034
       0.004  0.001  0.001  0.996 -0.004
      -0.012  0.034  0.034 -0.004  0.417
     ------------------------ ATOM    7 ------------------------
     Tr[ns(  7)] (up, down, total) =   4.96198  4.36585  9.32783
     Atomic magnetic moment for atom   7 =   0.59613
     SPIN  1
     eigenvalues:
       0.974  0.992  0.999  0.999  0.999
     eigenvectors (columns):
      -0.627 -0.024  0.261  0.717  0.155
      -0.018  0.075 -0.076 -0.196  0.975
      -0.049  0.996  0.005  0.005 -0.076
       0.773  0.045  0.301  0.538  0.143
      -0.077 -0.007  0.914 -0.397 -0.010
     occupation matrix ns (before diag.):
       0.989 -0.000 -0.001  0.012 -0.001
      -0.000  0.999 -0.001  0.000 -0.000
      -0.001 -0.001  0.992  0.001 -0.000
       0.012  0.000  0.001  0.984  0.001
      -0.001 -0.000 -0.000  0.001  0.998
     SPIN  2
     eigenvalues:
       0.411  0.968  0.994  0.995  0.997
     eigenvectors (columns):
      -0.010  0.612  0.049 -0.040  0.788
      -0.064  0.016 -0.993  0.079  0.053
      -0.998 -0.014  0.062 -0.011 -0.006
       0.009 -0.787  0.009 -0.126  0.604
       0.005  0.077 -0.083 -0.988 -0.104
     occupation matrix ns (before diag.):
       0.986 -0.001 -0.006  0.014 -0.001
      -0.001  0.992 -0.037  0.001  0.000
      -0.006 -0.037  0.414  0.005  0.003
       0.014  0.001  0.005  0.979  0.002
      -0.001  0.000  0.003  0.002  0.995
     ------------------------ ATOM    8 ------------------------
     Tr[ns(  8)] (up, down, total) =   4.96171  4.36400  9.32571
     Atomic magnetic moment for atom   8 =   0.59771
     SPIN  1
     eigenvalues:
       0.974  0.992  0.999  0.999  0.999
     eigenvectors (columns):
      -0.981 -0.047  0.128  0.131  0.031
      -0.074 -0.060 -0.144 -0.207 -0.963
      -0.078 -0.036 -0.945  0.303  0.084
       0.150 -0.010  0.261  0.921 -0.247
      -0.052  0.996 -0.034  0.014 -0.056
     occupation matrix ns (before diag.):
       0.974 -0.002 -0.002  0.004 -0.001
      -0.002  0.999 -0.000  0.000  0.000
      -0.002 -0.000  0.998  0.000  0.000
       0.004  0.000  0.000  0.998  0.000
      -0.001  0.000  0.000  0.000  0.992
     SPIN  2
     eigenvalues:
       0.410  0.968  0.994  0.995  0.997
     eigenvectors (columns):
       0.014 -0.986 -0.063 -0.102 -0.119
      -0.062 -0.073  0.988  0.115 -0.022
      -0.052 -0.078 -0.126  0.979 -0.132
      -0.005  0.131  0.002 -0.122 -0.984
       0.997  0.006  0.056  0.059 -0.012
     occupation matrix ns (before diag.):
       0.969 -0.001 -0.002  0.004 -0.008
      -0.001  0.992 -0.002  0.000  0.036
      -0.002 -0.002  0.994  0.000  0.030
       0.004  0.000  0.000  0.996  0.003
      -0.008  0.036  0.030  0.003  0.414
     ------------------------ ATOM    9 ------------------------
     Tr[ns(  9)] (up, down, total) =   4.96062  4.36403  9.32466
     Atomic magnetic moment for atom   9 =   0.59659
     SPIN  1
     eigenvalues:
       0.973  0.991  0.999  0.999  0.999
     eigenvectors (columns):
       0.632 -0.028  0.243 -0.721  0.146
       0.021  0.057 -0.050  0.198  0.977
       0.036  0.998  0.001 -0.018 -0.056
      -0.771  0.026  0.282 -0.553  0.141
       0.070  0.002  0.927  0.368 -0.029
     occupation matrix ns (before diag.):
       0.989 -0.000 -0.000  0.012 -0.001
      -0.000  0.999 -0.000  0.000 -0.000
      -0.000 -0.000  0.991  0.001 -0.000
       0.012  0.000  0.001  0.984  0.001
      -0.001 -0.000 -0.000  0.001  0.998
     SPIN  2
     eigenvalues:
       0.410  0.968  0.994  0.995  0.997
     eigenvectors (columns):
      -0.003 -0.617  0.053 -0.022  0.785
       0.055 -0.018 -0.996  0.031  0.054
       0.998  0.008  0.055 -0.005  0.006
      -0.012  0.783  0.015 -0.109  0.612
      -0.002 -0.073 -0.034 -0.993 -0.083
     occupation matrix ns (before diag.):
       0.986 -0.000  0.002  0.014 -0.001
      -0.000  0.993 -0.032  0.001 -0.000
       0.002 -0.032  0.412  0.007  0.001
       0.014  0.001  0.007  0.979  0.001
      -0.001 -0.000  0.001  0.001  0.995
     ------------------------ ATOM   10 ------------------------
     Tr[ns( 10)] (up, down, total) =   4.96149  4.36465  9.32614
     Atomic magnetic moment for atom  10 =   0.59684
     SPIN  1
     eigenvalues:
       0.974  0.992  0.999  0.999  0.999
     eigenvectors (columns):
       0.981 -0.041 -0.134  0.130 -0.036
       0.075 -0.073  0.090 -0.228  0.964
       0.079 -0.045  0.933  0.348 -0.014
      -0.154 -0.001 -0.318  0.900  0.255
       0.049  0.996  0.043  0.005  0.068
     occupation matrix ns (before diag.):
       0.975 -0.002 -0.002  0.004 -0.001
      -0.002  0.999 -0.000  0.000  0.000
      -0.002 -0.000  0.998  0.000  0.000
       0.004  0.000  0.000  0.998  0.000
      -0.001  0.000  0.000  0.000  0.992
     SPIN  2
     eigenvalues:
       0.410  0.968  0.994  0.995  0.997
     eigenvectors (columns):
       0.015 -0.985 -0.066 -0.107 -0.121
      -0.064 -0.076  0.988  0.113 -0.030
      -0.053 -0.082 -0.125  0.978 -0.135
      -0.003  0.135 -0.005 -0.125 -0.983
       0.996  0.006  0.058  0.061 -0.010
     occupation matrix ns (before diag.):
       0.969 -0.001 -0.002  0.004 -0.009
      -0.001  0.992 -0.002  0.000  0.037
      -0.002 -0.002  0.993  0.000  0.031
       0.004  0.000  0.000  0.996  0.002
      -0.009  0.037  0.031  0.002  0.415
     ------------------------ ATOM   11 ------------------------
     Tr[ns( 11)] (up, down, total) =   4.95138  4.37933  9.33071
     Atomic magnetic moment for atom  11 =   0.57204
     SPIN  1
     eigenvalues:
       0.972  0.984  0.998  0.999  0.999
     eigenvectors (columns):
       0.646 -0.049  0.747  0.053 -0.138
       0.018 -0.069 -0.191 -0.122 -0.971
      -0.102 -0.992  0.035 -0.011  0.063
      -0.756  0.091  0.632 -0.001 -0.145
       0.034  0.017  0.063 -0.991  0.112
     occupation matrix ns (before diag.):
       0.987 -0.000  0.001  0.013 -0.001
      -0.000  0.999 -0.001  0.001 -0.000
       0.001 -0.001  0.984 -0.001  0.000
       0.013  0.001 -0.001  0.983  0.001
      -0.001 -0.000  0.000  0.001  0.999
     SPIN  2
     eigenvalues:
       0.430  0.967  0.992  0.995  0.996
     eigenvectors (columns):
      -0.029  0.631  0.065 -0.189  0.749
       0.020  0.022  0.894  0.447  0.016
       0.999  0.009 -0.013 -0.020  0.027
      -0.011 -0.774  0.055 -0.092  0.624
       0.005  0.043 -0.440  0.869  0.221
     occupation matrix ns (before diag.):
       0.984 -0.000  0.016  0.014 -0.000
      -0.000  0.993 -0.011  0.001  0.001
       0.016 -0.011  0.431  0.007 -0.003
       0.014  0.001  0.007  0.978  0.001
      -0.000  0.001 -0.003  0.001  0.994
     ------------------------ ATOM   12 ------------------------
     Tr[ns( 12)] (up, down, total) =   4.95716  4.36944  9.32661
     Atomic magnetic moment for atom  12 =   0.58772
     SPIN  1
     eigenvalues:
       0.973  0.988  0.999  0.999  0.999
     eigenvectors (columns):
      -0.977 -0.081 -0.155  0.117  0.041
      -0.083 -0.089  0.115 -0.265 -0.950
      -0.079 -0.063  0.880  0.464 -0.010
       0.155  0.008 -0.430  0.837 -0.300
      -0.094  0.991  0.057  0.008 -0.080
     occupation matrix ns (before diag.):
       0.974 -0.002 -0.002  0.004 -0.001
      -0.002  0.999 -0.000  0.000  0.001
      -0.002 -0.000  0.998  0.000  0.000
       0.004  0.000  0.000  0.998  0.000
      -0.001  0.001  0.000  0.000  0.988
     SPIN  2
     eigenvalues:
       0.416  0.968  0.994  0.995  0.996
     eigenvectors (columns):
       0.020 -0.983 -0.075  0.112  0.126
      -0.063 -0.089  0.986 -0.123  0.012
      -0.058 -0.083 -0.135 -0.974  0.149
       0.019  0.140  0.018  0.134  0.981
       0.996  0.007  0.055 -0.069 -0.011
     occupation matrix ns (before diag.):
       0.969 -0.002 -0.002  0.004 -0.011
      -0.002  0.992 -0.002  0.001  0.036
      -0.002 -0.002  0.993  0.001  0.034
       0.004  0.001  0.001  0.996 -0.011
      -0.011  0.036  0.034 -0.011  0.420
     ------------------------ ATOM   13 ------------------------
     Tr[ns( 13)] (up, down, total) =   4.94805  4.40252  9.35056
     Atomic magnetic moment for atom  13 =   0.54553
     SPIN  1
     eigenvalues:
       0.967  0.987  0.997  0.999  0.999
     eigenvectors (columns):
       0.562 -0.025 -0.824 -0.033 -0.064
      -0.064 -0.042 -0.117 -0.044  0.989
       0.077 -0.990  0.082  0.079 -0.024
      -0.821 -0.105 -0.548  0.012 -0.122
       0.019  0.077 -0.032  0.995  0.045
     occupation matrix ns (before diag.):
       0.988  0.001 -0.002  0.014 -0.000
       0.001  0.998 -0.000 -0.002  0.000
      -0.002 -0.000  0.987  0.001  0.001
       0.014 -0.002  0.001  0.977  0.001
      -0.000  0.000  0.001  0.001  0.998
     SPIN  2
     eigenvalues:
       0.461  0.959  0.993  0.994  0.995
     eigenvectors (columns):
      -0.038  0.536 -0.212 -0.168  0.799
      -0.009 -0.014  0.911 -0.375  0.172
      -0.999 -0.014  0.010  0.036 -0.028
      -0.005 -0.841 -0.124 -0.029  0.526
       0.028  0.067  0.332  0.910  0.237
     occupation matrix ns (before diag.):
       0.984  0.000 -0.020  0.016 -0.000
       0.000  0.993 -0.005 -0.000 -0.000
      -0.020 -0.005  0.462 -0.003  0.015
       0.016 -0.000 -0.003  0.970  0.002
      -0.000 -0.000  0.015  0.002  0.993
     ------------------------ ATOM   14 ------------------------
     Tr[ns( 14)] (up, down, total) =   4.95079  4.38140  9.33218
     Atomic magnetic moment for atom  14 =   0.56939
     SPIN  1
     eigenvalues:
       0.971  0.983  0.999  0.999  0.999
     eigenvectors (columns):
       0.929 -0.327  0.057 -0.158  0.039
       0.025 -0.095  0.034  0.109 -0.989
       0.051 -0.061 -0.995  0.058 -0.021
      -0.137  0.058 -0.065 -0.979 -0.119
       0.339  0.936 -0.038  0.020 -0.080
     occupation matrix ns (before diag.):
       0.973 -0.001 -0.002  0.004 -0.004
      -0.001  0.999 -0.000  0.000  0.001
      -0.002 -0.000  0.998  0.000  0.000
       0.004  0.000  0.000  0.998  0.000
      -0.004  0.001  0.000  0.000  0.982
     SPIN  2
     eigenvalues:
       0.430  0.966  0.994  0.995  0.996
     eigenvectors (columns):
       0.021 -0.986 -0.015 -0.159  0.032
      -0.040 -0.064  0.806  0.399  0.432
      -0.022 -0.079 -0.587  0.638  0.493
       0.085  0.129 -0.076 -0.634  0.754
       0.995  0.006  0.027  0.088 -0.037
     occupation matrix ns (before diag.):
       0.966 -0.001 -0.002  0.003 -0.012
      -0.001  0.994  0.000  0.003  0.023
      -0.002  0.000  0.995  0.002  0.012
       0.003  0.003  0.002  0.991 -0.048
      -0.012  0.023  0.012 -0.048  0.436
     ------------------------ ATOM   15 ------------------------
     Tr[ns( 15)] (up, down, total) =   4.92684  4.82094  9.74777
     Atomic magnetic moment for atom  15 =   0.10590
     SPIN  1
     eigenvalues:
       0.969  0.973  0.994  0.995  0.997
     eigenvectors (columns):
       0.070 -0.157 -0.333 -0.926 -0.037
       0.162 -0.238  0.901 -0.264 -0.188
       0.848  0.359 -0.117  0.060 -0.368
      -0.348  0.877  0.210 -0.248 -0.054
       0.359  0.142  0.138 -0.083  0.908
     occupation matrix ns (before diag.):
       0.994 -0.001 -0.000  0.004 -0.000
      -0.001  0.992 -0.001  0.006 -0.001
      -0.000 -0.001  0.973  0.001 -0.010
       0.004  0.006  0.001  0.975  0.000
      -0.000 -0.001 -0.010  0.000  0.993
     SPIN  2
     eigenvalues:
       0.885  0.967  0.986  0.991  0.992
     eigenvectors (columns):
      -0.030  0.166  0.102 -0.526  0.827
      -0.006  0.169 -0.604 -0.675 -0.389
      -0.975 -0.011  0.174 -0.087 -0.110
       0.012 -0.971 -0.068 -0.220  0.064
      -0.221 -0.028 -0.768  0.461  0.385
     occupation matrix ns (before diag.):
       0.991 -0.001 -0.003  0.004  0.000
      -0.001  0.989  0.000  0.004 -0.003
      -0.003  0.000  0.890  0.001 -0.022
       0.004  0.004  0.001  0.969 -0.001
       0.000 -0.003 -0.022 -0.001  0.983
     ------------------------ ATOM   16 ------------------------
     Tr[ns( 16)] (up, down, total) =   4.92522  4.56891  9.49413
     Atomic magnetic moment for atom  16 =   0.35630
     SPIN  1
     eigenvalues:
       0.940  0.992  0.997  0.998  0.998
     eigenvectors (columns):
       0.587  0.802 -0.088 -0.065  0.004
       0.003 -0.089 -0.088 -0.968 -0.219
       0.050 -0.138 -0.931  0.023  0.332
      -0.260  0.196  0.264 -0.241  0.876
       0.765 -0.539  0.218 -0.029  0.274
     occupation matrix ns (before diag.):
       0.974  0.000 -0.001  0.008 -0.024
       0.000  0.998 -0.000  0.000 -0.000
      -0.001 -0.000  0.997  0.001 -0.002
       0.008  0.000  0.001  0.994  0.012
      -0.024 -0.000 -0.002  0.012  0.962
     SPIN  2
     eigenvalues:
       0.612  0.979  0.991  0.991  0.996
     eigenvectors (columns):
       0.268  0.840 -0.178  0.431  0.066
       0.001 -0.064 -0.767 -0.280  0.574
       0.003  0.080  0.600 -0.032  0.795
      -0.054 -0.464 -0.136  0.854  0.183
       0.962 -0.260  0.041 -0.072 -0.011
     occupation matrix ns (before diag.):
       0.955  0.001 -0.001  0.010 -0.095
       0.001  0.992  0.002  0.000 -0.001
      -0.001  0.002  0.994  0.001 -0.001
       0.010  0.000  0.001  0.988  0.018
      -0.095 -0.001 -0.001  0.018  0.640

     Number of occupied Hubbard levels =  149.8541

     Atomic wfc used for Hubbard projectors are orthogonalized

     Starting wfcs are  208 randomized atomic wfcs
     Checking if some PAW data can be deallocated... 

     Band Structure Calculation
     Davidson diagonalization with overlap
     c_bands:  1 eigenvalues not converged
     c_bands:  1 eigenvalues not converged
     c_bands:  1 eigenvalues not converged
     c_bands:  1 eigenvalues not converged
     c_bands:  1 eigenvalues not converged
     c_bands:  1 eigenvalues not converged
     c_bands:  1 eigenvalues not converged
     c_bands:  1 eigenvalues not converged
     c_bands:  1 eigenvalues not converged
     c_bands:  1 eigenvalues not converged
     c_bands:  1 eigenvalues not converged
     c_bands:  1 eigenvalues not converged
     c_bands:  1 eigenvalues not converged
     c_bands:  1 eigenvalues not converged
     c_bands:  1 eigenvalues not converged

     ethr =  3.68E-12,  avg # of iterations = 80.9

     total cpu time spent up to now is    94636.5 secs

     End of band structure calculation

     Number of k-points >= 100: set verbosity='high' to print the bands.

     the Fermi energy is     0.0243 ev
     (compare with:     0.0020 eV, computed in scf)

     Writing all to output data dir ./tmp/CuO_slab.save/ :
     XML data file, pseudopotentials, collected wavefunctions
 
     init_run     :    539.87s CPU    558.47s WALL (       1 calls)
     electrons    :  93648.80s CPU  94077.78s WALL (       1 calls)

     Called by init_run:
     wfcinit      :    503.98s CPU    520.52s WALL (       1 calls)
     potinit      :      9.46s CPU      9.98s WALL (       1 calls)
     hinit0       :      3.70s CPU      3.82s WALL (       1 calls)

     Called by electrons:
     c_bands      :  93647.28s CPU  94076.25s WALL (       1 calls)
     v_of_rho     :      3.99s CPU      4.38s WALL (       1 calls)
     newd         :     20.96s CPU     22.32s WALL (       1 calls)
     PAW_pot      :      5.01s CPU      5.02s WALL (       1 calls)

     Called by c_bands:
     init_us_2    :     96.11s CPU     96.43s WALL (     296 calls)
     cegterg      :  90857.35s CPU  91229.25s WALL (     671 calls)

     Called by *egterg:
     cdiaghg      :    442.62s CPU    443.51s WALL (   12121 calls)
     h_psi        :  66393.65s CPU  66605.98s WALL (   12792 calls)
     s_psi        :   5046.06s CPU   5058.40s WALL (   12940 calls)
     g_psi        :    307.47s CPU    308.15s WALL (   11973 calls)

     Called by h_psi:
     h_psi:calbec :   4780.08s CPU   4792.48s WALL (   12792 calls)
     vloc_psi     :  48637.07s CPU  48747.48s WALL (   12792 calls)
     add_vuspsi   :   4918.08s CPU   4930.18s WALL (   12792 calls)
     vhpsi        :   7659.85s CPU   7679.18s WALL (   12792 calls)

     General routines
     calbec       :   6025.55s CPU   6041.26s WALL (   25732 calls)
     fft          :      1.25s CPU      1.28s WALL (      23 calls)
     ffts         :      0.03s CPU      0.03s WALL (       2 calls)
     fftw         :  29931.99s CPU  29998.80s WALL ( 1909810 calls)
     interpolate  :      0.19s CPU      0.22s WALL (       2 calls)
     davcio       :      0.17s CPU     58.09s WALL (     592 calls)
 
     Parallel routines

     Hubbard U routines
     vhpsi        :   7659.85s CPU   7679.18s WALL (   12792 calls)
 
     PWSCF        :   1d 2h10m CPU   1d 2h18m WALL

 
   This run was terminated on:   8:56:35  11Jan2026            

=------------------------------------------------------------------------------=
   JOB DONE.
=------------------------------------------------------------------------------=
