MPI startup(): PMI server not found. Please set I_MPI_PMI_LIBRARY variable if it is not a singleton case.

     Program PWSCF v.7.3.1 starts on 24Nov2025 at 11: 5:51 

     This program is part of the open-source Quantum ESPRESSO suite
     for quantum simulation of materials; please cite
         "P. Giannozzi et al., J. Phys.:Condens. Matter 21 395502 (2009);
         "P. Giannozzi et al., J. Phys.:Condens. Matter 29 465901 (2017);
         "P. Giannozzi et al., J. Chem. Phys. 152 154105 (2020);
          URL http://www.quantum-espresso.org", 
     in publications or presentations arising from this work. More details at
     http://www.quantum-espresso.org/quote

     Parallel version (MPI), running on     1 processors

     MPI processes distributed on     1 nodes
     148769 MiB available memory on the printing compute node when the environment starts
 
     Reading input from CuO_slab_relax.in

     Current dimensions of program PWSCF are:
     Max number of different atomic species (ntypx) = 10
     Max number of k-points (npk) =  40000
     Max angular momentum in pseudopotentials (lmaxx) =  4
     file Cu.pbe-dn-kjpaw_psl.1.0.0.UPF: wavefunction(s)  4S 3D renormalized
     file O.pbe-n-kjpaw_psl.0.1.UPF: wavefunction(s)  2P renormalized
 
     Subspace diagonalization in iterative solution of the eigenvalue problem:
     a serial algorithm will be used

 
     G-vector sticks info
     --------------------
     sticks:   dense  smooth     PW     G-vecs:    dense   smooth      PW
     Sum        3047    1525    445              1012953   358117   56287
 
     Using Slab Decomposition
 


     bravais-lattice index     =            0
     lattice parameter (alat)  =       7.6739  a.u.
     unit-cell volume          =    5703.8646 (a.u.)^3
     number of atoms/cell      =           32
     number of atomic types    =            2
     number of electrons       =       272.00
     number of Kohn-Sham states=          163
     kinetic-energy cutoff     =      60.0000  Ry
     charge density cutoff     =     480.0000  Ry
     scf convergence threshold =      1.0E-06
     mixing beta               =       0.3000
     number of iterations used =            8  plain     mixing
     energy convergence thresh.=      1.0E-04
     force convergence thresh. =      1.0E-03
     Exchange-correlation= SLA  PW   PBX  PBC
                           (   1   4   3   4   0   0   0)
     nstep                     =          200


     celldm(1)=   7.673918  celldm(2)=   0.000000  celldm(3)=   0.000000
     celldm(4)=   0.000000  celldm(5)=   0.000000  celldm(6)=   0.000000

     crystal axes: (cart. coord. in units of alat)
               a(1) = (  -0.722969   0.000000   0.690881 )  
               a(2) = (   0.684632  -1.269632  -0.007284 )  
               a(3) = (   5.898761   3.808895   6.172731 )  

     reciprocal axes: (cart. coord. in units 2 pi/alat)
               b(1) = ( -0.618724 -0.338228  0.799967 )  
               b(2) = (  0.208489 -0.676457  0.218173 )  
               b(3) = (  0.069496  0.037058  0.072724 )  


     PseudoPot. # 1 for Cu read from file:
     ./SSSP/Cu.pbe-dn-kjpaw_psl.1.0.0.UPF
     MD5 check sum: cfffd1f38ee05704b3e17f46f1730a6f
     Pseudo is Projector augmented-wave + core cor, Zval = 11.0
     Generated using &quot;atomic&quot; code by A. Dal Corso  v.6.3
     Shape of augmentation charge: PSQ
     Using radial grid of 1199 points,  6 beta functions with: 
                l(1) =   0
                l(2) =   0
                l(3) =   1
                l(4) =   1
                l(5) =   2
                l(6) =   2
     Q(r) pseudized with 0 coefficients 


     PseudoPot. # 2 for O  read from file:
     ./SSSP/O.pbe-n-kjpaw_psl.0.1.UPF
     MD5 check sum: 0234752ac141de4415c5fc33072bef88
     Pseudo is Projector augmented-wave + core cor, Zval =  6.0
     Generated using "atomic" code by A. Dal Corso  v.5.0.99 svn rev. 10869
     Shape of augmentation charge: BESSEL
     Using radial grid of 1095 points,  4 beta functions with: 
                l(1) =   0
                l(2) =   0
                l(3) =   1
                l(4) =   1
     Q(r) pseudized with 0 coefficients 


     atomic species   valence    mass     pseudopotential
     Cu               11.00    63.54600     Cu( 1.00)
     O                 6.00    15.99900     O ( 1.00)

     No symmetry found



   Cartesian axes

     site n.     atom                  positions (alat units)
         1        Cu     tau(   1) = (   1.8265904   0.6348159   2.4906036  )
         2        Cu     tau(   2) = (   2.1689064   0.0000000   2.1251046  )
         3        Cu     tau(   3) = (   2.5495593   0.6348159   2.5234370  )
         4        Cu     tau(   4) = (   1.4842747   1.2696316   2.8561028  )
         5        Cu     tau(   5) = (   2.5495593   0.6348159   3.2471510  )
         6        Cu     tau(   6) = (   2.2072435   1.2696316   2.8889362  )
         7        Cu     tau(   7) = (   3.2725281   0.6348159   3.2799842  )
         8        Cu     tau(   8) = (   2.9302122   1.2696316   2.9217694  )
         9        Cu     tau(   9) = (   2.5878964   1.9044475   4.0109824  )
        10        Cu     tau(  10) = (   2.9302122   1.2696316   3.6454834  )
        11        Cu     tau(  11) = (   3.3108651   1.9044475   4.0438158  )
        12        Cu     tau(  12) = (   3.6531810   1.2696316   3.6783166  )
        13        Cu     tau(  13) = (   4.0338339   1.9044475   4.0766492  )
        14        Cu     tau(  14) = (   3.6531810   1.2696316   4.4020306  )
        15        Cu     tau(  15) = (   4.0338339   1.9044475   4.8003632  )
        16        Cu     tau(  16) = (   3.6915180   2.5392632   4.4421484  )
        17        O      tau(  17) = (   1.8462037   0.9522236   2.1291921  )
        18        O      tau(  18) = (   1.8069771   0.3174080   2.1283012  )
        19        O      tau(  19) = (   1.8462037   0.9522236   2.8529062  )
        20        O      tau(  20) = (   2.5299459   0.3174080   2.1611344  )
        21        O      tau(  21) = (   2.5691726   0.9522236   2.8857393  )
        22        O      tau(  22) = (   2.5299459   0.3174080   2.8848484  )
        23        O      tau(  23) = (   2.5691726   0.9522236   3.6094534  )
        24        O      tau(  24) = (   2.5682831   1.5870395   2.9249660  )
        25        O      tau(  25) = (   3.2921414   0.9522236   3.6422868  )
        26        O      tau(  26) = (   2.5682831   1.5870395   3.6486800  )
        27        O      tau(  27) = (   4.0151101   0.9522236   3.6751202  )
        28        O      tau(  28) = (   3.2912517   1.5870395   3.6815134  )
        29        O      tau(  29) = (   3.3304784   2.2218552   4.4061184  )
        30        O      tau(  30) = (   3.2912517   1.5870395   4.4052275  )
        31        O      tau(  31) = (   4.0534472   2.2218552   4.4389518  )
        32        O      tau(  32) = (   4.0142206   1.5870395   4.4380606  )

     number of k points=    10  Methfessel-Paxton smearing, width (Ry)=  0.0200
                       cart. coord. in units 2pi/alat
        k(    1) = (   0.0000000   0.0000000   0.0000000), wk =   0.1250000
        k(    2) = (   0.0521224  -0.1691142   0.0545432), wk =   0.2500000
        k(    3) = (  -0.1042447   0.3382283  -0.1090864), wk =   0.1250000
        k(    4) = (  -0.1546810  -0.0845571   0.1999918), wk =   0.2500000
        k(    5) = (  -0.1025586  -0.2536713   0.2545350), wk =   0.2500000
        k(    6) = (  -0.2589258   0.2536712   0.0909053), wk =   0.2500000
        k(    7) = (  -0.2068034   0.0845571   0.1454486), wk =   0.2500000
        k(    8) = (   0.3093620   0.1691142  -0.3999835), wk =   0.1250000
        k(    9) = (   0.3614844   0.0000000  -0.3454403), wk =   0.2500000
        k(   10) = (   0.2051173   0.5073425  -0.5090700), wk =   0.1250000

     Dense  grid:  1012953 G-vectors     FFT dimensions: (  54,  80, 512)

     Smooth grid:   358117 G-vectors     FFT dimensions: (  40,  60, 360)

     Estimated max dynamical RAM per process >       5.57 GB

     Initial potential from superposition of free atoms

     starting charge     271.9963, renormalised to     272.0000

     negative rho (up, down):  6.734E-04 0.000E+00
     Starting wfcs are  208 randomized atomic wfcs
     Checking if some PAW data can be deallocated... 

     total cpu time spent up to now is       93.3 secs

     Self-consistent Calculation

     iteration #  1     ecut=    60.00 Ry     beta= 0.30
     Davidson diagonalization with overlap
     ethr =  1.00E-02,  avg # of iterations =  2.7

     negative rho (up, down):  4.161E-04 0.000E+00

     total cpu time spent up to now is      296.9 secs

     total energy              =   -4071.33341640 Ry
     estimated scf accuracy    <      11.51409830 Ry

     iteration #  2     ecut=    60.00 Ry     beta= 0.30
     Davidson diagonalization with overlap
     ethr =  4.23E-03,  avg # of iterations =  5.2

     negative rho (up, down):  7.033E-04 0.000E+00

     total cpu time spent up to now is      540.2 secs

     total energy              =   -4063.10986409 Ry
     estimated scf accuracy    <     528.48539933 Ry

     iteration #  3     ecut=    60.00 Ry     beta= 0.30
     Davidson diagonalization with overlap
     ethr =  4.23E-03,  avg # of iterations =  5.3

     negative rho (up, down):  6.398E-04 0.000E+00

     total cpu time spent up to now is      759.8 secs

     total energy              =   -4065.83230873 Ry
     estimated scf accuracy    <     726.64382852 Ry

     iteration #  4     ecut=    60.00 Ry     beta= 0.30
     Davidson diagonalization with overlap
     ethr =  4.23E-03,  avg # of iterations =  3.5

     negative rho (up, down):  5.027E-04 0.000E+00

     total cpu time spent up to now is      953.6 secs

     total energy              =   -4072.39760942 Ry
     estimated scf accuracy    <      58.85697390 Ry

     iteration #  5     ecut=    60.00 Ry     beta= 0.30
     Davidson diagonalization with overlap
     ethr =  4.23E-03,  avg # of iterations =  2.0

     negative rho (up, down):  5.232E-04 0.000E+00

     total cpu time spent up to now is     1138.2 secs

     total energy              =   -4074.11725628 Ry
     estimated scf accuracy    <      34.62015734 Ry

     iteration #  6     ecut=    60.00 Ry     beta= 0.30
     Davidson diagonalization with overlap
     ethr =  4.23E-03,  avg # of iterations =  1.0

     negative rho (up, down):  5.333E-04 0.000E+00

     total cpu time spent up to now is     1309.3 secs

     total energy              =   -4074.68066958 Ry
     estimated scf accuracy    <      19.48295225 Ry

     iteration #  7     ecut=    60.00 Ry     beta= 0.30
     Davidson diagonalization with overlap
     ethr =  4.23E-03,  avg # of iterations =  1.0

     negative rho (up, down):  5.463E-04 0.000E+00

     total cpu time spent up to now is     1480.5 secs

     total energy              =   -4074.92527133 Ry
     estimated scf accuracy    <       5.61961848 Ry

     iteration #  8     ecut=    60.00 Ry     beta= 0.30
     Davidson diagonalization with overlap
     ethr =  2.07E-03,  avg # of iterations =  1.1

     negative rho (up, down):  5.797E-04 0.000E+00

     total cpu time spent up to now is     1652.7 secs

     total energy              =   -4074.94646095 Ry
     estimated scf accuracy    <       1.44640378 Ry

     iteration #  9     ecut=    60.00 Ry     beta= 0.30
     Davidson diagonalization with overlap
     ethr =  5.32E-04,  avg # of iterations =  4.3

     negative rho (up, down):  6.315E-04 0.000E+00

     total cpu time spent up to now is     1843.7 secs

     total energy              =   -4074.91073207 Ry
     estimated scf accuracy    <       0.70409033 Ry

     iteration # 10     ecut=    60.00 Ry     beta= 0.30
     Davidson diagonalization with overlap
     ethr =  2.59E-04,  avg # of iterations =  5.0

     negative rho (up, down):  6.924E-04 0.000E+00

     total cpu time spent up to now is     2036.6 secs

     total energy              =   -4074.91231924 Ry
     estimated scf accuracy    <       0.39845723 Ry

     iteration # 11     ecut=    60.00 Ry     beta= 0.30
     Davidson diagonalization with overlap
     ethr =  1.46E-04,  avg # of iterations =  4.2

     negative rho (up, down):  7.360E-04 0.000E+00

     total cpu time spent up to now is     2229.0 secs

     total energy              =   -4074.92114874 Ry
     estimated scf accuracy    <       0.12586059 Ry

     iteration # 12     ecut=    60.00 Ry     beta= 0.30
     Davidson diagonalization with overlap
     ethr =  4.63E-05,  avg # of iterations =  8.5

     negative rho (up, down):  7.403E-04 0.000E+00

     total cpu time spent up to now is     2444.0 secs

     total energy              =   -4074.91777354 Ry
     estimated scf accuracy    <       0.34278684 Ry

     iteration # 13     ecut=    60.00 Ry     beta= 0.30
     Davidson diagonalization with overlap
     ethr =  4.63E-05,  avg # of iterations =  1.4

     negative rho (up, down):  7.678E-04 0.000E+00

     total cpu time spent up to now is     2619.7 secs

     total energy              =   -4074.92228524 Ry
     estimated scf accuracy    <       0.34829097 Ry

     iteration # 14     ecut=    60.00 Ry     beta= 0.30
     Davidson diagonalization with overlap
     ethr =  4.63E-05,  avg # of iterations =  2.0

     negative rho (up, down):  8.107E-04 0.000E+00

     total cpu time spent up to now is     2797.2 secs

     total energy              =   -4074.91914233 Ry
     estimated scf accuracy    <       0.72005956 Ry

     iteration # 15     ecut=    60.00 Ry     beta= 0.30
     Davidson diagonalization with overlap
     ethr =  4.63E-05,  avg # of iterations =  1.3

     negative rho (up, down):  8.460E-04 0.000E+00

     total cpu time spent up to now is     2971.7 secs

     total energy              =   -4074.92033317 Ry
     estimated scf accuracy    <       0.43057781 Ry

     iteration # 16     ecut=    60.00 Ry     beta= 0.30
     Davidson diagonalization with overlap
     ethr =  4.63E-05,  avg # of iterations =  1.1

     negative rho (up, down):  8.820E-04 0.000E+00

     total cpu time spent up to now is     3144.0 secs

     total energy              =   -4074.92520480 Ry
     estimated scf accuracy    <       0.06219313 Ry

     iteration # 17     ecut=    60.00 Ry     beta= 0.30
     Davidson diagonalization with overlap
     ethr =  2.29E-05,  avg # of iterations =  2.3

     negative rho (up, down):  8.903E-04 0.000E+00

     total cpu time spent up to now is     3323.6 secs

     total energy              =   -4074.92484805 Ry
     estimated scf accuracy    <       0.17920155 Ry

     iteration # 18     ecut=    60.00 Ry     beta= 0.30
     Davidson diagonalization with overlap
     ethr =  2.29E-05,  avg # of iterations =  1.1

     negative rho (up, down):  8.973E-04 0.000E+00

     total cpu time spent up to now is     3495.9 secs

     total energy              =   -4074.92703125 Ry
     estimated scf accuracy    <       0.03666474 Ry

     iteration # 19     ecut=    60.00 Ry     beta= 0.30
     Davidson diagonalization with overlap
     ethr =  1.35E-05,  avg # of iterations =  1.6

     negative rho (up, down):  9.103E-04 0.000E+00

     total cpu time spent up to now is     3674.0 secs

     total energy              =   -4074.92717103 Ry
     estimated scf accuracy    <       0.01850192 Ry

     iteration # 20     ecut=    60.00 Ry     beta= 0.30
     Davidson diagonalization with overlap
     ethr =  6.80E-06,  avg # of iterations =  3.0

     negative rho (up, down):  9.037E-04 0.000E+00

     total cpu time spent up to now is     3858.0 secs

     total energy              =   -4074.92751769 Ry
     estimated scf accuracy    <       0.01380580 Ry

     iteration # 21     ecut=    60.00 Ry     beta= 0.30
     Davidson diagonalization with overlap
     c_bands:  1 eigenvalues not converged
     ethr =  5.08E-06,  avg # of iterations =  3.5

     negative rho (up, down):  9.140E-04 0.000E+00

     total cpu time spent up to now is     4042.4 secs

     total energy              =   -4074.92775015 Ry
     estimated scf accuracy    <       0.00953652 Ry

     iteration # 22     ecut=    60.00 Ry     beta= 0.30
     Davidson diagonalization with overlap
     c_bands:  1 eigenvalues not converged
     ethr =  3.51E-06,  avg # of iterations =  6.6

     negative rho (up, down):  9.111E-04 0.000E+00

     total cpu time spent up to now is     4240.6 secs

     total energy              =   -4074.92807556 Ry
     estimated scf accuracy    <       0.00276398 Ry

     iteration # 23     ecut=    60.00 Ry     beta= 0.30
     Davidson diagonalization with overlap
     ethr =  1.02E-06,  avg # of iterations =  1.7

     negative rho (up, down):  9.129E-04 0.000E+00

     total cpu time spent up to now is     4419.6 secs

     total energy              =   -4074.92805874 Ry
     estimated scf accuracy    <       0.01053185 Ry

     iteration # 24     ecut=    60.00 Ry     beta= 0.30
     Davidson diagonalization with overlap
     ethr =  1.02E-06,  avg # of iterations =  2.7

     negative rho (up, down):  9.166E-04 0.000E+00

     total cpu time spent up to now is     4603.6 secs

     total energy              =   -4074.92808611 Ry
     estimated scf accuracy    <       0.01136671 Ry

     iteration # 25     ecut=    60.00 Ry     beta= 0.30
     Davidson diagonalization with overlap
     ethr =  1.02E-06,  avg # of iterations =  2.2

     negative rho (up, down):  9.185E-04 0.000E+00

     total cpu time spent up to now is     4780.2 secs

     total energy              =   -4074.92816751 Ry
     estimated scf accuracy    <       0.00289611 Ry

     iteration # 26     ecut=    60.00 Ry     beta= 0.30
     Davidson diagonalization with overlap
     ethr =  1.02E-06,  avg # of iterations =  1.3

     negative rho (up, down):  9.210E-04 0.000E+00

     total cpu time spent up to now is     4954.7 secs

     total energy              =   -4074.92819991 Ry
     estimated scf accuracy    <       0.00046210 Ry

     iteration # 27     ecut=    60.00 Ry     beta= 0.30
     Davidson diagonalization with overlap
     ethr =  1.70E-07,  avg # of iterations =  1.2

     negative rho (up, down):  9.218E-04 0.000E+00

     total cpu time spent up to now is     5128.1 secs

     total energy              =   -4074.92820046 Ry
     estimated scf accuracy    <       0.00059314 Ry

     iteration # 28     ecut=    60.00 Ry     beta= 0.30
     Davidson diagonalization with overlap
     ethr =  1.70E-07,  avg # of iterations =  1.0

     negative rho (up, down):  9.256E-04 0.000E+00

     total cpu time spent up to now is     5299.2 secs

     total energy              =   -4074.92820822 Ry
     estimated scf accuracy    <       0.00086292 Ry

     iteration # 29     ecut=    60.00 Ry     beta= 0.30
     Davidson diagonalization with overlap
     ethr =  1.70E-07,  avg # of iterations =  1.0

     negative rho (up, down):  9.286E-04 0.000E+00

     total cpu time spent up to now is     5470.3 secs

     total energy              =   -4074.92821890 Ry
     estimated scf accuracy    <       0.00008945 Ry

     iteration # 30     ecut=    60.00 Ry     beta= 0.30
     Davidson diagonalization with overlap
     ethr =  3.29E-08,  avg # of iterations =  1.0

     negative rho (up, down):  9.310E-04 0.000E+00

     total cpu time spent up to now is     5641.5 secs

     total energy              =   -4074.92821702 Ry
     estimated scf accuracy    <       0.00022250 Ry

     iteration # 31     ecut=    60.00 Ry     beta= 0.30
     Davidson diagonalization with overlap
     ethr =  3.29E-08,  avg # of iterations =  1.0

     negative rho (up, down):  9.298E-04 0.000E+00

     total cpu time spent up to now is     5812.6 secs

     total energy              =   -4074.92821597 Ry
     estimated scf accuracy    <       0.00015327 Ry

     iteration # 32     ecut=    60.00 Ry     beta= 0.30
     Davidson diagonalization with overlap
     ethr =  3.29E-08,  avg # of iterations =  1.0

     negative rho (up, down):  9.310E-04 0.000E+00

     total cpu time spent up to now is     5983.7 secs

     total energy              =   -4074.92821900 Ry
     estimated scf accuracy    <       0.00011884 Ry

     iteration # 33     ecut=    60.00 Ry     beta= 0.30
     Davidson diagonalization with overlap
     ethr =  3.29E-08,  avg # of iterations =  1.0

     negative rho (up, down):  9.324E-04 0.000E+00

     total cpu time spent up to now is     6154.8 secs

     total energy              =   -4074.92820361 Ry
     estimated scf accuracy    <       0.00188505 Ry

     iteration # 34     ecut=    60.00 Ry     beta= 0.30
     Davidson diagonalization with overlap
     ethr =  3.29E-08,  avg # of iterations =  1.0

     negative rho (up, down):  9.316E-04 0.000E+00

     total cpu time spent up to now is     6326.0 secs

     total energy              =   -4074.92821739 Ry
     estimated scf accuracy    <       0.00065387 Ry

     iteration # 35     ecut=    60.00 Ry     beta= 0.30
     Davidson diagonalization with overlap
     ethr =  3.29E-08,  avg # of iterations =  1.0

     negative rho (up, down):  9.319E-04 0.000E+00

     total cpu time spent up to now is     6497.1 secs

     total energy              =   -4074.92822153 Ry
     estimated scf accuracy    <       0.00046369 Ry

     iteration # 36     ecut=    60.00 Ry     beta= 0.30
     Davidson diagonalization with overlap
     ethr =  3.29E-08,  avg # of iterations =  1.0

     negative rho (up, down):  9.320E-04 0.000E+00

     total cpu time spent up to now is     6668.2 secs

     total energy              =   -4074.92822528 Ry
     estimated scf accuracy    <       0.00004338 Ry

     iteration # 37     ecut=    60.00 Ry     beta= 0.30
     Davidson diagonalization with overlap
     ethr =  1.59E-08,  avg # of iterations =  1.0

     negative rho (up, down):  9.320E-04 0.000E+00

     total cpu time spent up to now is     6839.3 secs

     total energy              =   -4074.92822587 Ry
     estimated scf accuracy    <       0.00004417 Ry

     iteration # 38     ecut=    60.00 Ry     beta= 0.30
     Davidson diagonalization with overlap
     ethr =  1.59E-08,  avg # of iterations =  1.0

     negative rho (up, down):  9.326E-04 0.000E+00

     total cpu time spent up to now is     7010.4 secs

     total energy              =   -4074.92822646 Ry
     estimated scf accuracy    <       0.00005778 Ry

     iteration # 39     ecut=    60.00 Ry     beta= 0.30
     Davidson diagonalization with overlap
     ethr =  1.59E-08,  avg # of iterations =  1.0

     negative rho (up, down):  9.330E-04 0.000E+00

     total cpu time spent up to now is     7181.5 secs

     total energy              =   -4074.92822734 Ry
     estimated scf accuracy    <       0.00000243 Ry

     iteration # 40     ecut=    60.00 Ry     beta= 0.30
     Davidson diagonalization with overlap
     ethr =  8.95E-10,  avg # of iterations =  1.0

     negative rho (up, down):  9.334E-04 0.000E+00

     total cpu time spent up to now is     7352.7 secs

     total energy              =   -4074.92822748 Ry
     estimated scf accuracy    <       0.00000248 Ry

     iteration # 41     ecut=    60.00 Ry     beta= 0.30
     Davidson diagonalization with overlap
     ethr =  8.95E-10,  avg # of iterations =  1.0

     negative rho (up, down):  9.335E-04 0.000E+00

     total cpu time spent up to now is     7523.8 secs

     total energy              =   -4074.92822741 Ry
     estimated scf accuracy    <       0.00000293 Ry

     iteration # 42     ecut=    60.00 Ry     beta= 0.30
     Davidson diagonalization with overlap
     ethr =  8.95E-10,  avg # of iterations =  1.0

     negative rho (up, down):  9.339E-04 0.000E+00

     total cpu time spent up to now is     7694.9 secs

     total energy              =   -4074.92822745 Ry
     estimated scf accuracy    <       0.00000654 Ry

     iteration # 43     ecut=    60.00 Ry     beta= 0.30
     Davidson diagonalization with overlap
     ethr =  8.95E-10,  avg # of iterations =  1.0

     negative rho (up, down):  9.340E-04 0.000E+00

     total cpu time spent up to now is     7866.1 secs

     total energy              =   -4074.92822743 Ry
     estimated scf accuracy    <       0.00001848 Ry

     iteration # 44     ecut=    60.00 Ry     beta= 0.30
     Davidson diagonalization with overlap
     ethr =  8.95E-10,  avg # of iterations =  1.0

     negative rho (up, down):  9.340E-04 0.000E+00

     total cpu time spent up to now is     8037.2 secs

     total energy              =   -4074.92822748 Ry
     estimated scf accuracy    <       0.00000933 Ry

     iteration # 45     ecut=    60.00 Ry     beta= 0.30
     Davidson diagonalization with overlap
     ethr =  8.95E-10,  avg # of iterations =  1.0

     negative rho (up, down):  9.342E-04 0.000E+00

     total cpu time spent up to now is     8208.4 secs

     total energy              =   -4074.92822695 Ry
     estimated scf accuracy    <       0.00009176 Ry

     iteration # 46     ecut=    60.00 Ry     beta= 0.30
     Davidson diagonalization with overlap
     ethr =  8.95E-10,  avg # of iterations =  1.0

     negative rho (up, down):  9.342E-04 0.000E+00

     total cpu time spent up to now is     8379.5 secs

     total energy              =   -4074.92822761 Ry
     estimated scf accuracy    <       0.00000267 Ry

     iteration # 47     ecut=    60.00 Ry     beta= 0.30
     Davidson diagonalization with overlap
     ethr =  8.95E-10,  avg # of iterations =  1.0

     negative rho (up, down):  9.342E-04 0.000E+00

     total cpu time spent up to now is     8550.7 secs

     total energy              =   -4074.92822760 Ry
     estimated scf accuracy    <       0.00000450 Ry

     iteration # 48     ecut=    60.00 Ry     beta= 0.30
     Davidson diagonalization with overlap
     ethr =  8.95E-10,  avg # of iterations =  1.0

     negative rho (up, down):  9.342E-04 0.000E+00

     total cpu time spent up to now is     8721.8 secs

     total energy              =   -4074.92822756 Ry
     estimated scf accuracy    <       0.00001300 Ry

     iteration # 49     ecut=    60.00 Ry     beta= 0.30
     Davidson diagonalization with overlap
     ethr =  8.95E-10,  avg # of iterations =  1.0

     negative rho (up, down):  9.346E-04 0.000E+00

     total cpu time spent up to now is     8892.7 secs

     End of self-consistent calculation

          k = 0.0000 0.0000 0.0000 ( 44861 PWs)   bands (ev):

   -19.2575 -19.0955 -18.8587 -18.5931 -18.3458 -18.1537 -18.0396 -18.0285
   -18.0180 -18.0095 -17.9805 -17.9640 -17.9045 -17.0147 -16.9474 -15.8090
    -7.4981  -7.1793  -6.7205  -6.2216  -5.7799  -5.6492  -5.6394  -5.4535
    -5.4020  -5.3744  -5.2499  -5.2264  -5.1564  -5.0660  -5.0585  -5.0184
    -4.9769  -4.9697  -4.9460  -4.9258  -4.8739  -4.8536  -4.8368  -4.8020
    -4.7567  -4.7410  -4.7041  -4.6507  -4.5409  -4.4737  -4.4616  -4.1712
    -4.1198  -4.0368  -3.8699  -3.6782  -3.6465  -3.5842  -3.3991  -3.2754
    -3.2477  -3.1016  -3.0495  -2.8722  -2.7870  -2.6658  -2.6218  -2.5257
    -2.4857  -2.4410  -2.4180  -2.3796  -2.3659  -2.3306  -2.3265  -2.2890
    -2.2705  -2.2475  -2.2202  -2.2090  -2.1601  -2.1400  -2.1162  -2.0535
    -2.0262  -1.9838  -1.9638  -1.9483  -1.9308  -1.9182  -1.8969  -1.8818
    -1.8517  -1.8459  -1.8253  -1.7987  -1.7678  -1.7419  -1.7294  -1.7042
    -1.6705  -1.6506  -1.6163  -1.5940  -1.5767  -1.5608  -1.5569  -1.5386
    -1.5157  -1.4924  -1.4660  -1.4588  -1.4363  -1.3923  -1.3389  -1.3100
    -1.2677  -1.2313  -1.2143  -1.2085  -1.1686  -1.1447  -1.0810  -1.0369
    -0.9785  -0.9479  -0.8326  -0.8139  -0.7669  -0.6403  -0.5578  -0.3189
    -0.2779  -0.2247  -0.1493   0.0297   0.0374   0.2766   0.3827   0.4529
     0.5466   0.6018   0.6642   0.7501   0.8139   0.9458   1.0032   1.1000
     1.1388   2.1950   2.9106   3.5965   4.0683   4.4071   4.5013   4.5411
     4.7749   5.0184   5.1893   5.4563   5.6335   5.7550   5.8527   5.9491
     6.0247   6.2331   6.2993

          k = 0.0521-0.1691 0.0545 ( 44825 PWs)   bands (ev):

   -19.1300 -18.9777 -18.7574 -18.5158 -18.3595 -18.3129 -18.2703 -18.1888
   -18.1626 -18.0586 -17.9355 -17.8495 -17.8052 -17.0194 -16.9586 -15.8267
    -7.1195  -6.8129  -6.3816  -5.9729  -5.9508  -5.7631  -5.7487  -5.7110
    -5.6632  -5.4902  -5.4593  -5.4355  -5.2522  -5.1334  -5.0975  -4.9761
    -4.9395  -4.9216  -4.9079  -4.8743  -4.8666  -4.7983  -4.7484  -4.6530
    -4.6440  -4.5499  -4.5070  -4.4478  -4.3746  -4.2939  -4.2586  -4.2252
    -4.1433  -4.0738  -3.9234  -3.8929  -3.7275  -3.6315  -3.5577  -3.3975
    -3.3378  -3.2288  -3.0472  -2.9469  -2.8739  -2.7812  -2.7217  -2.6777
    -2.6316  -2.5784  -2.5129  -2.4784  -2.4466  -2.3560  -2.3033  -2.2748
    -2.2099  -2.1540  -2.1453  -2.1095  -2.0785  -2.0585  -2.0411  -2.0278
    -2.0012  -1.9914  -1.9550  -1.9473  -1.9275  -1.9144  -1.9006  -1.8772
    -1.8635  -1.8438  -1.8316  -1.8175  -1.8019  -1.7801  -1.7613  -1.7423
    -1.6935  -1.6631  -1.6351  -1.6208  -1.6152  -1.6031  -1.5715  -1.5486
    -1.5296  -1.4967  -1.4840  -1.4496  -1.3944  -1.3504  -1.3334  -1.2936
    -1.2792  -1.2310  -1.2240  -1.1959  -1.1480  -1.1298  -1.1113  -1.0102
    -0.9616  -0.9104  -0.8296  -0.8092  -0.7645  -0.7224  -0.6615  -0.5363
    -0.4097  -0.1871  -0.0872  -0.0241   0.1058   0.1803   0.3343   0.3810
     0.4973   0.6011   0.7048   0.8251   0.8824   0.9604   1.1161   1.2432
     1.4015   2.7889   3.3568   3.3781   3.8440   3.9940   4.2428   4.4638
     4.7094   5.1080   5.2176   5.3299   5.4376   5.6690   5.8766   6.0229
     6.2329   6.3244   6.4059

          k =-0.1042 0.3382-0.1091 ( 44806 PWs)   bands (ev):

   -18.7966 -18.7843 -18.6823 -18.6531 -18.5092 -18.4806 -18.3222 -18.3085
   -18.2276 -18.1059 -17.9423 -17.8255 -17.7600 -17.0240 -16.9697 -15.8443
    -6.2838  -6.2773  -6.1432  -6.0030  -5.9804  -5.9391  -5.8991  -5.6857
    -5.6258  -5.6064  -5.5185  -5.3828  -5.3321  -5.2725  -5.2665  -5.2188
    -5.0411  -4.9966  -4.8925  -4.8671  -4.8576  -4.8309  -4.8211  -4.7451
    -4.6641  -4.5995  -4.5477  -4.4596  -4.3571  -4.2365  -4.1968  -4.1200
    -3.9771  -3.8976  -3.8390  -3.7951  -3.6842  -3.6507  -3.5443  -3.4921
    -3.4348  -3.4023  -3.2941  -2.9090  -2.8492  -2.8239  -2.7773  -2.7708
    -2.6824  -2.6075  -2.5897  -2.5245  -2.3947  -2.3683  -2.3582  -2.2789
    -2.2060  -2.1751  -2.1394  -2.1065  -2.1009  -2.0862  -2.0783  -2.0235
    -2.0101  -1.9948  -1.9699  -1.9591  -1.9538  -1.9067  -1.8980  -1.8806
    -1.8746  -1.8651  -1.8439  -1.8210  -1.7936  -1.7856  -1.7761  -1.7615
    -1.7467  -1.7088  -1.6722  -1.6580  -1.6477  -1.6363  -1.5935  -1.5599
    -1.5408  -1.4917  -1.4518  -1.4257  -1.3739  -1.3349  -1.3239  -1.2512
    -1.2112  -1.1870  -1.1723  -1.1576  -1.1165  -1.0796  -1.0547  -1.0342
    -0.9990  -0.9544  -0.8714  -0.8176  -0.7864  -0.6820  -0.6075  -0.5452
    -0.3564  -0.2433  -0.0357   0.0474   0.1370   0.1498   0.2757   0.3677
     0.4174   0.4677   0.5107   0.5806   0.7066   1.0208   1.3118   1.5096
     1.7797   2.9363   3.5582   3.6207   3.9654   4.0337   4.2521   4.3394
     4.4339   4.6008   4.8152   5.3781   5.6786   5.7560   5.8869   6.0833
     6.2003   6.4830   6.7042

          k =-0.1547-0.0846 0.2000 ( 44829 PWs)   bands (ev):

   -19.0774 -18.9474 -18.7626 -18.5633 -18.3857 -18.2491 -18.1684 -18.1163
   -18.0735 -18.0161 -17.9547 -17.9042 -17.8861 -17.0308 -16.9449 -15.8067
    -7.1465  -6.8827  -6.5196  -6.1530  -6.1431  -5.9017  -5.8242  -5.7976
    -5.6198  -5.5651  -5.4801  -5.4301  -5.3246  -5.3019  -5.2266  -5.1727
    -5.1009  -5.0824  -5.0375  -5.0256  -4.9694  -4.9127  -4.8670  -4.8463
    -4.7835  -4.7383  -4.6834  -4.5221  -4.4073  -4.3744  -4.1717  -4.0768
    -4.0334  -3.9068  -3.8422  -3.7620  -3.6261  -3.5264  -3.4929  -3.3883
    -3.2597  -3.2077  -3.0515  -2.9195  -2.8056  -2.7572  -2.6882  -2.6205
    -2.5534  -2.4794  -2.4440  -2.3772  -2.3466  -2.3141  -2.2686  -2.2383
    -2.2039  -2.1818  -2.1634  -2.1382  -2.1033  -2.0780  -2.0458  -2.0127
    -1.9955  -1.9582  -1.9398  -1.9316  -1.9224  -1.9157  -1.9039  -1.8904
    -1.8844  -1.8653  -1.8560  -1.8391  -1.8153  -1.7802  -1.7639  -1.7441
    -1.7111  -1.6762  -1.6573  -1.6493  -1.6278  -1.5893  -1.5808  -1.5552
    -1.5133  -1.4941  -1.4567  -1.4115  -1.3888  -1.3815  -1.3581  -1.3150
    -1.2961  -1.2862  -1.2433  -1.2148  -1.1952  -1.1718  -1.1376  -1.0534
    -1.0158  -0.9910  -0.8401  -0.8272  -0.7898  -0.6223  -0.6077  -0.2497
    -0.1123  -0.0470   0.0389   0.0998   0.1927   0.2775   0.4001   0.4750
     0.5800   0.6578   0.7773   0.8630   0.8980   0.9468   0.9890   1.0882
     1.5683   3.1891   3.6634   4.1349   4.4220   4.5810   4.6523   4.7774
     5.1132   5.2768   5.5471   5.6304   5.7065   5.7884   5.9046   5.9741
     6.1354   6.2659   6.4113

          k =-0.1026-0.2537 0.2545 ( 44738 PWs)   bands (ev):

   -18.8635 -18.7531 -18.6104 -18.5373 -18.4611 -18.4102 -18.3656 -18.3229
   -18.2128 -18.0611 -17.9336 -17.8466 -17.8004 -17.0362 -16.9564 -15.8246
    -6.6092  -6.3730  -6.2610  -6.1103  -6.0756  -6.0458  -5.9619  -5.8948
    -5.8234  -5.7368  -5.5508  -5.5198  -5.4454  -5.2392  -5.1934  -5.1139
    -5.0397  -5.0179  -4.9674  -4.9354  -4.9048  -4.8621  -4.8319  -4.8024
    -4.7896  -4.7170  -4.6499  -4.5370  -4.4804  -4.3420  -4.2843  -4.2452
    -4.0515  -3.9153  -3.8954  -3.7667  -3.6505  -3.5847  -3.5448  -3.5266
    -3.3904  -3.3169  -3.1950  -3.0727  -2.8277  -2.7248  -2.7029  -2.6734
    -2.5769  -2.5502  -2.4360  -2.3835  -2.3700  -2.3197  -2.2468  -2.2071
    -2.1673  -2.1479  -2.1282  -2.1063  -2.0803  -2.0607  -2.0346  -2.0270
    -2.0182  -1.9957  -1.9716  -1.9620  -1.9514  -1.9368  -1.9058  -1.8957
    -1.8800  -1.8215  -1.8014  -1.7890  -1.7709  -1.7589  -1.7388  -1.7139
    -1.6952  -1.6729  -1.6593  -1.6289  -1.6082  -1.5893  -1.5552  -1.5130
    -1.4838  -1.4614  -1.4299  -1.3983  -1.3787  -1.3611  -1.3350  -1.2979
    -1.2797  -1.2315  -1.2172  -1.1899  -1.1609  -1.1193  -1.0936  -1.0335
    -0.9700  -0.9357  -0.8294  -0.7866  -0.7579  -0.7302  -0.7106  -0.5598
    -0.4054  -0.2240  -0.1657  -0.0448   0.0780   0.1268   0.2654   0.3182
     0.6013   0.6566   0.7564   0.8505   0.8750   0.9919   1.1708   1.3057
     1.9880   3.9594   4.0784   4.1894   4.4062   4.5089   4.6530   4.7559
     4.9114   5.0680   5.2372   5.5576   5.6067   5.7360   5.8672   6.0553
     6.2434   6.3021   6.7528

          k =-0.2589 0.2537 0.0909 ( 44738 PWs)   bands (ev):

   -18.8640 -18.7547 -18.6116 -18.5241 -18.4474 -18.4267 -18.3635 -18.3388
   -18.2112 -18.0588 -17.9314 -17.8461 -17.8002 -17.0099 -16.9716 -15.8404
    -6.6097  -6.3760  -6.2582  -6.1089  -6.0835  -6.0358  -5.9556  -5.8804
    -5.8219  -5.7260  -5.6038  -5.5317  -5.4599  -5.2451  -5.1839  -5.1067
    -5.0492  -5.0191  -4.9594  -4.9239  -4.8967  -4.8577  -4.8394  -4.8163
    -4.7759  -4.7255  -4.6259  -4.5604  -4.4805  -4.3681  -4.2713  -4.1784
    -4.0695  -3.8681  -3.8160  -3.7910  -3.6391  -3.6131  -3.5697  -3.4405
    -3.4106  -3.3362  -3.2155  -2.9818  -2.8138  -2.7542  -2.7053  -2.6887
    -2.5714  -2.5570  -2.4572  -2.3997  -2.3641  -2.3301  -2.2820  -2.2167
    -2.1665  -2.1532  -2.1172  -2.0924  -2.0771  -2.0579  -2.0384  -2.0209
    -2.0078  -1.9926  -1.9730  -1.9646  -1.9567  -1.9365  -1.9063  -1.8940
    -1.8884  -1.8456  -1.8220  -1.8017  -1.7774  -1.7597  -1.7449  -1.7217
    -1.6984  -1.6802  -1.6696  -1.6511  -1.6285  -1.5800  -1.5706  -1.5326
    -1.5131  -1.4942  -1.4224  -1.3957  -1.3644  -1.3326  -1.3182  -1.2911
    -1.2553  -1.2340  -1.2030  -1.1647  -1.1530  -1.1404  -1.0886  -1.0507
    -0.9623  -0.9267  -0.8787  -0.8347  -0.7991  -0.6597  -0.6159  -0.5263
    -0.3892  -0.2247  -0.1651  -0.0338   0.0997   0.1252   0.2267   0.3044
     0.4572   0.6288   0.7286   0.8323   0.8961   0.9918   1.1716   1.3067
     2.0750   4.0482   4.0953   4.2865   4.3956   4.4693   4.6548   4.7919
     4.8933   5.0831   5.3480   5.5272   5.5973   5.7018   5.8197   6.0169
     6.2566   6.3690   6.8336

          k =-0.2068 0.0846 0.1454 ( 44829 PWs)   bands (ev):

   -19.0776 -18.9476 -18.7621 -18.5611 -18.3824 -18.2550 -18.1707 -18.1226
   -18.0749 -18.0113 -17.9495 -17.9025 -17.8875 -17.0052 -16.9600 -15.8221
    -7.1467  -6.8831  -6.5192  -6.1539  -6.1390  -5.8984  -5.8240  -5.7937
    -5.6191  -5.5768  -5.4810  -5.4468  -5.3214  -5.3072  -5.2411  -5.1618
    -5.1139  -5.0973  -5.0471  -5.0173  -4.9561  -4.9069  -4.8773  -4.8271
    -4.8036  -4.7175  -4.6615  -4.5353  -4.4271  -4.3198  -4.1854  -4.0817
    -4.0141  -3.9273  -3.8138  -3.7217  -3.5908  -3.5321  -3.3964  -3.3495
    -3.3164  -3.2070  -3.1050  -2.9388  -2.7920  -2.7109  -2.6699  -2.6149
    -2.5432  -2.5056  -2.4694  -2.3913  -2.3626  -2.3288  -2.2878  -2.2366
    -2.2176  -2.1924  -2.1592  -2.1376  -2.1044  -2.0983  -2.0500  -2.0129
    -1.9984  -1.9829  -1.9466  -1.9350  -1.9278  -1.9205  -1.9070  -1.9023
    -1.8882  -1.8747  -1.8509  -1.8224  -1.8135  -1.7832  -1.7561  -1.7317
    -1.7072  -1.6821  -1.6684  -1.6585  -1.6404  -1.5966  -1.5838  -1.5535
    -1.5324  -1.4953  -1.4335  -1.4211  -1.3820  -1.3509  -1.3353  -1.3128
    -1.2972  -1.2760  -1.2504  -1.2214  -1.1838  -1.1525  -1.1010  -1.0961
    -1.0355  -0.9794  -0.8718  -0.8628  -0.7518  -0.6374  -0.5595  -0.2961
    -0.1881  -0.0403   0.0855   0.1516   0.2346   0.3081   0.4115   0.4299
     0.5460   0.6075   0.7210   0.8082   0.8945   0.9331   0.9913   1.0644
     1.6667   3.1982   3.7112   4.2435   4.4717   4.6018   4.6731   4.8077
     4.9905   5.3941   5.4974   5.5806   5.6860   5.7663   5.8619   6.0160
     6.1769   6.3596   6.4503

          k = 0.3094 0.1691-0.4000 ( 44682 PWs)   bands (ev):

   -18.7250 -18.6993 -18.6537 -18.5837 -18.5157 -18.4773 -18.3181 -18.1471
   -18.0980 -18.0299 -17.9547 -17.8911 -17.8652 -17.0488 -16.9421 -15.8043
    -6.5160  -6.5090  -6.4255  -6.3343  -6.2124  -6.1710  -6.1192  -6.0485
    -5.9442  -5.8678  -5.6676  -5.6313  -5.5314  -5.4077  -5.2875  -5.1718
    -5.1504  -5.0958  -5.0704  -5.0059  -4.9726  -4.9541  -4.8999  -4.8402
    -4.7790  -4.7569  -4.6704  -4.5113  -4.4927  -4.3955  -4.1857  -4.1597
    -3.9936  -3.9543  -3.8338  -3.7343  -3.6738  -3.5957  -3.5368  -3.4727
    -3.4486  -3.3081  -2.9899  -2.9056  -2.8473  -2.6238  -2.5914  -2.5580
    -2.4840  -2.4661  -2.3558  -2.3025  -2.2720  -2.1897  -2.1788  -2.1630
    -2.1596  -2.1535  -2.1432  -2.1324  -2.1253  -2.1201  -2.1143  -2.0842
    -2.0664  -2.0523  -2.0097  -1.9860  -1.9757  -1.9631  -1.9537  -1.9433
    -1.8992  -1.8654  -1.8409  -1.8094  -1.7797  -1.7450  -1.7242  -1.7142
    -1.7097  -1.6378  -1.6308  -1.6231  -1.6101  -1.5863  -1.5308  -1.4987
    -1.4946  -1.4678  -1.4627  -1.4133  -1.3997  -1.3807  -1.3563  -1.3112
    -1.2805  -1.2696  -1.2406  -1.2200  -1.1983  -1.1569  -1.1448  -1.0722
    -0.9879  -0.9855  -0.9389  -0.9159  -0.8971  -0.6576  -0.5846  -0.1222
    -0.0815  -0.0560   0.0781   0.1147   0.1998   0.2906   0.2988   0.4701
     0.6441   0.7004   0.7904   0.8538   0.9130   0.9427   1.0275   1.1525
     2.4686   3.8780   4.3786   4.7313   4.8220   4.8389   4.8825   4.9472
     5.2780   5.5325   5.5472   5.6889   5.7561   5.8291   6.1157   6.1373
     6.4505   6.7650   7.2007

          k = 0.3615 0.0000-0.3454 ( 44687 PWs)   bands (ev):

   -18.7460 -18.7008 -18.6447 -18.5813 -18.5061 -18.4273 -18.3361 -18.2180
   -18.0987 -18.0043 -17.9365 -17.8886 -17.8715 -17.0217 -16.9576 -15.8201
    -6.5432  -6.4363  -6.3769  -6.3703  -6.2930  -6.1758  -6.0795  -6.0207
    -5.9993  -5.9135  -5.7270  -5.5785  -5.5435  -5.4581  -5.2214  -5.1734
    -5.1326  -5.0687  -5.0495  -4.9933  -4.9316  -4.9126  -4.8660  -4.8216
    -4.8023  -4.7889  -4.6481  -4.5717  -4.5171  -4.3522  -4.2056  -4.1508
    -4.0514  -3.9008  -3.8304  -3.7713  -3.6824  -3.6117  -3.5339  -3.4309
    -3.3090  -3.1863  -3.1627  -3.0041  -2.7458  -2.6914  -2.6005  -2.5953
    -2.5010  -2.4809  -2.3965  -2.3451  -2.2865  -2.2106  -2.1733  -2.1687
    -2.1515  -2.1466  -2.1391  -2.1247  -2.1207  -2.1131  -2.1005  -2.0867
    -2.0724  -2.0556  -2.0415  -2.0118  -1.9725  -1.9484  -1.9226  -1.9013
    -1.8726  -1.8527  -1.8418  -1.8112  -1.7823  -1.7692  -1.7391  -1.7196
    -1.6926  -1.6480  -1.6255  -1.5809  -1.5566  -1.5463  -1.5141  -1.5041
    -1.4894  -1.4596  -1.4315  -1.4051  -1.3795  -1.3596  -1.3381  -1.3052
    -1.2701  -1.2623  -1.2519  -1.2059  -1.1872  -1.1721  -1.1378  -1.1250
    -1.0772  -1.0284  -0.9197  -0.9088  -0.8578  -0.6230  -0.6141  -0.1691
    -0.1253  -0.0781   0.0132   0.0952   0.1497   0.2935   0.3688   0.4320
     0.5292   0.6680   0.7779   0.8873   0.9733   0.9973   1.0486   1.1362
     2.4443   4.1306   4.5238   4.5788   4.6299   4.8303   4.9965   5.1396
     5.2324   5.3869   5.5825   5.6882   5.7937   5.9132   6.0405   6.1774
     6.4243   6.8254   7.0554

          k = 0.2051 0.5073-0.5091 ( 44682 PWs)   bands (ev):

   -18.7240 -18.6999 -18.6567 -18.5880 -18.5095 -18.4629 -18.3341 -18.1545
   -18.1005 -18.0260 -17.9495 -17.8895 -17.8639 -16.9946 -16.9739 -15.8366
    -6.5142  -6.5111  -6.4229  -6.3369  -6.2099  -6.1707  -6.1133  -6.0282
    -5.9462  -5.8744  -5.7107  -5.6428  -5.5507  -5.4086  -5.2861  -5.2028
    -5.1486  -5.0944  -5.0649  -4.9689  -4.9624  -4.9473  -4.8998  -4.8389
    -4.7990  -4.7525  -4.6915  -4.5372  -4.4977  -4.2532  -4.1779  -4.0981
    -3.9596  -3.8964  -3.7682  -3.7385  -3.7059  -3.6279  -3.5171  -3.4408
    -3.4000  -3.3432  -3.0866  -2.9655  -2.8038  -2.6329  -2.5854  -2.5535
    -2.5033  -2.4627  -2.3552  -2.3434  -2.2762  -2.2500  -2.1853  -2.1733
    -2.1629  -2.1509  -2.1461  -2.1323  -2.1259  -2.1121  -2.0929  -2.0920
    -2.0863  -2.0605  -2.0415  -1.9841  -1.9766  -1.9624  -1.9539  -1.9423
    -1.9141  -1.8878  -1.8461  -1.8309  -1.8016  -1.7656  -1.7436  -1.7254
    -1.6765  -1.6492  -1.6307  -1.6209  -1.6025  -1.5823  -1.5450  -1.5377
    -1.4851  -1.4559  -1.4448  -1.4038  -1.3646  -1.3432  -1.3071  -1.2822
    -1.2684  -1.2411  -1.2256  -1.1943  -1.1715  -1.1515  -1.1303  -1.1090
    -1.0592  -1.0486  -0.9111  -0.8550  -0.8009  -0.6788  -0.4548  -0.2999
    -0.2269  -0.0271   0.0578   0.1843   0.2176   0.3242   0.4039   0.4325
     0.5795   0.6029   0.7206   0.8187   0.8571   0.9573   1.0111   1.0850
     2.4313   4.3705   4.4419   4.7119   4.8135   4.8356   4.9088   5.0963
     5.1725   5.3160   5.6280   5.7595   5.7783   5.9330   6.0170   6.1628
     6.3779   6.8495   7.0626

     the Fermi energy is     0.4754 ev

!    total energy              =   -4074.92822747 Ry
     total all-electron energy =    -55366.554763 Ry
     estimated scf accuracy    <       0.00000037 Ry
     smearing contrib. (-TS)   =       0.00200362 Ry
     internal energy E=F+TS    =   -4074.93023108 Ry

     The total energy is F=E-TS. E is the sum of the following terms:
     one-electron contribution =  -47382.85532514 Ry
     hartree contribution      =   23923.22252767 Ry
     xc contribution           =    -830.60485079 Ry
     ewald contribution        =   21805.26350501 Ry
     one-center paw contrib.   =   -1589.95608783 Ry

     convergence has been achieved in  49 iterations

     negative rho (up, down):  9.346E-04 0.000E+00

     Forces acting on atoms (cartesian axes, Ry/au):

     atom    1 type  1   force =    -0.00395120   -0.02157858   -0.06658103
     atom    2 type  1   force =    -0.02901008    0.03252876    0.00511238
     atom    3 type  1   force =     0.00013923   -0.00247896   -0.00620144
     atom    4 type  1   force =    -0.02481337   -0.01190907   -0.00610024
     atom    5 type  1   force =    -0.00066147   -0.00007243   -0.00090834
     atom    6 type  1   force =     0.00363152   -0.00208584   -0.00250454
     atom    7 type  1   force =    -0.00064922   -0.00025802   -0.00041573
     atom    8 type  1   force =    -0.00118206   -0.00015603   -0.00079722
     atom    9 type  1   force =    -0.00061126    0.00038139   -0.00023628
     atom   10 type  1   force =    -0.00043593   -0.00032843    0.00005863
     atom   11 type  1   force =    -0.00194149    0.00359953    0.00266067
     atom   12 type  1   force =    -0.00225834   -0.00003669    0.00058826
     atom   13 type  1   force =     0.00237297    0.01594648    0.02418862
     atom   14 type  1   force =     0.01348956   -0.00443611    0.00310644
     atom   15 type  1   force =    -0.01744090    0.00305943   -0.02691709
     atom   16 type  1   force =     0.03300923   -0.00610092   -0.00626231
     atom   17 type  2   force =    -0.01025333    0.02142244    0.03082160
     atom   18 type  2   force =     0.05369831   -0.02743872    0.05058210
     atom   19 type  2   force =    -0.00522174   -0.00533488    0.00111437
     atom   20 type  2   force =     0.01824251    0.01808433   -0.00697777
     atom   21 type  2   force =    -0.00180360    0.00079137    0.00250213
     atom   22 type  2   force =    -0.00080481   -0.00194326   -0.00167170
     atom   23 type  2   force =    -0.00113064    0.00062049    0.00174650
     atom   24 type  2   force =     0.00086852    0.00019153   -0.00131063
     atom   25 type  2   force =    -0.00060266    0.00000190    0.00173584
     atom   26 type  2   force =     0.00174477    0.00003084   -0.00070667
     atom   27 type  2   force =    -0.00319559   -0.00049181    0.00105602
     atom   28 type  2   force =     0.00222760    0.00039043   -0.00130342
     atom   29 type  2   force =    -0.02854809   -0.02425311    0.00074411
     atom   30 type  2   force =     0.00348718    0.00387340    0.00102248
     atom   31 type  2   force =    -0.01774335    0.03199869    0.00316533
     atom   32 type  2   force =     0.01934775   -0.02401814   -0.00131109

     Total force =     0.152499     Total SCF correction =     0.002218

     BFGS Geometry Optimization
     Energy error            =      0.0E+00 Ry
     Gradient error          =      6.7E-02 Ry/Bohr

     number of scf cycles    =   1
     number of bfgs steps    =   0

     energy             new  =   -4074.9282274669 Ry

     new trust radius        =       0.0787079487 bohr
     new conv_thr            =       0.0000010000 Ry


ATOMIC_POSITIONS (angstrom)
Cu               7.4154411175        2.5664811097       10.0787648359
Cu               8.7922785250        0.0172134796        8.6324623571
Cu              10.3534826762        2.5765881886       10.2440483406
Cu               6.0143043313        5.1494969899       11.5950118915
Cu              10.3530589668        2.5778616714       13.1857523268
Cu               8.9652337202        5.1546952185       11.7302466571
Cu              13.2889424491        2.5777634641       13.3193440069
Cu              11.8985624791        5.1557164328       11.8644811315
Cu              10.5087675337        7.7339008210       16.2879219657
Cu              11.8989573166        5.1556252048       14.8038370242
Cu              13.4439396073        7.7356037871       16.4227869685
Cu              14.8338699378        5.1557795834       14.9374482928
Cu              16.3820997198        7.7421375130       16.5675110655
Cu              14.8422033676        5.1534515105       17.8776838586
Cu              16.3716146728        7.7353179829       19.4793700908
Cu              15.0082137307       10.3083695328       18.0356391308
O                7.4917531693        3.8781852656        8.6626660857
O                7.3663009209        1.2744300526        8.6695048971
O                7.4944157750        3.8640259009       11.5858487002
O               10.2834155191        1.2985198148        8.7723765211
O               10.4321015772        3.8672677743       11.7199140701
O               10.2733361114        1.2879216703       11.7140873721
O               10.4324576894        3.8671773513       14.6584172085
O               10.4299036006        6.4448503518       11.8771904467
O               13.3686140872        3.8668500055       14.7917435652
O               10.4303672937        6.4447653179       14.8164130445
O               16.3031179652        3.8665887458       14.9247158214
O               13.3664987951        6.4449556058       14.9494292624
O               13.5095069988        9.0098138074       17.8930337644
O               13.3671653342        6.4467987167       17.8895630739
O               16.4511016210        9.0395809800       18.0276470187
O               16.3114353905        6.4320391491       18.0216592036



     Writing config-only to output data dir ./tmp/CuO_111_slab.save/ :
     XML data file
     NEW-OLD atomic charge density approx. for the potential

     negative rho (up, down):  9.231E-04 0.000E+00

     total cpu time spent up to now is     8950.0 secs

     Self-consistent Calculation

     iteration #  1     ecut=    60.00 Ry     beta= 0.30
     Davidson diagonalization with overlap
     ethr =  1.00E-06,  avg # of iterations =  7.1

     negative rho (up, down):  9.279E-04 0.000E+00

     total cpu time spent up to now is     9377.8 secs

     total energy              =   -4074.93375254 Ry
     estimated scf accuracy    <       0.03286421 Ry

     iteration #  2     ecut=    60.00 Ry     beta= 0.30
     Davidson diagonalization with overlap
     c_bands:  1 eigenvalues not converged
     ethr =  1.21E-05,  avg # of iterations = 16.7

     negative rho (up, down):  9.886E-04 0.000E+00

     total cpu time spent up to now is     9651.1 secs

     total energy              =   -4074.57901502 Ry
     estimated scf accuracy    <      70.11509115 Ry

     iteration #  3     ecut=    60.00 Ry     beta= 0.30
     Davidson diagonalization with overlap
     ethr =  1.21E-05,  avg # of iterations = 14.5

     negative rho (up, down):  9.680E-04 0.000E+00

     total cpu time spent up to now is     9908.5 secs

     total energy              =   -4074.92748493 Ry
     estimated scf accuracy    <       1.77504243 Ry

     iteration #  4     ecut=    60.00 Ry     beta= 0.30
     Davidson diagonalization with overlap
     ethr =  1.21E-05,  avg # of iterations =  6.3

     negative rho (up, down):  9.513E-04 0.000E+00

     total cpu time spent up to now is    10105.3 secs

     total energy              =   -4074.94619233 Ry
     estimated scf accuracy    <       0.10300971 Ry

     iteration #  5     ecut=    60.00 Ry     beta= 0.30
     Davidson diagonalization with overlap
     ethr =  1.21E-05,  avg # of iterations =  1.3

     negative rho (up, down):  9.413E-04 0.000E+00

     total cpu time spent up to now is    10279.8 secs

     total energy              =   -4074.94779257 Ry
     estimated scf accuracy    <       0.03016588 Ry

     iteration #  6     ecut=    60.00 Ry     beta= 0.30
     Davidson diagonalization with overlap
     ethr =  1.11E-05,  avg # of iterations =  1.0

     negative rho (up, down):  9.378E-04 0.000E+00

     total cpu time spent up to now is    10450.8 secs

     total energy              =   -4074.94849660 Ry
     estimated scf accuracy    <       0.00478070 Ry

     iteration #  7     ecut=    60.00 Ry     beta= 0.30
     Davidson diagonalization with overlap
     ethr =  1.76E-06,  avg # of iterations =  4.2

     negative rho (up, down):  9.363E-04 0.000E+00

     total cpu time spent up to now is    10639.7 secs

     total energy              =   -4074.94837996 Ry
     estimated scf accuracy    <       0.00658146 Ry

     iteration #  8     ecut=    60.00 Ry     beta= 0.30
     Davidson diagonalization with overlap
     ethr =  1.76E-06,  avg # of iterations =  1.2

     negative rho (up, down):  9.360E-04 0.000E+00

     total cpu time spent up to now is    10812.7 secs

     total energy              =   -4074.94850355 Ry
     estimated scf accuracy    <       0.00152951 Ry

     iteration #  9     ecut=    60.00 Ry     beta= 0.30
     Davidson diagonalization with overlap
     ethr =  5.62E-07,  avg # of iterations =  1.3

     negative rho (up, down):  9.360E-04 0.000E+00

     total cpu time spent up to now is    10986.5 secs

     total energy              =   -4074.94853355 Ry
     estimated scf accuracy    <       0.00081522 Ry

     iteration # 10     ecut=    60.00 Ry     beta= 0.30
     Davidson diagonalization with overlap
     ethr =  3.00E-07,  avg # of iterations =  1.0

     negative rho (up, down):  9.361E-04 0.000E+00

     total cpu time spent up to now is    11156.8 secs

     total energy              =   -4074.94853860 Ry
     estimated scf accuracy    <       0.00038525 Ry

     iteration # 11     ecut=    60.00 Ry     beta= 0.30
     Davidson diagonalization with overlap
     ethr =  1.42E-07,  avg # of iterations =  1.0

     negative rho (up, down):  9.362E-04 0.000E+00

     total cpu time spent up to now is    11327.3 secs

     total energy              =   -4074.94853798 Ry
     estimated scf accuracy    <       0.00035013 Ry

     iteration # 12     ecut=    60.00 Ry     beta= 0.30
     Davidson diagonalization with overlap
     ethr =  1.29E-07,  avg # of iterations =  1.3

     negative rho (up, down):  9.367E-04 0.000E+00

     total cpu time spent up to now is    11501.1 secs

     total energy              =   -4074.94839456 Ry
     estimated scf accuracy    <       0.02707763 Ry

     iteration # 13     ecut=    60.00 Ry     beta= 0.30
     Davidson diagonalization with overlap
     ethr =  1.29E-07,  avg # of iterations =  1.0

     negative rho (up, down):  9.368E-04 0.000E+00

     total cpu time spent up to now is    11671.5 secs

     total energy              =   -4074.94851481 Ry
     estimated scf accuracy    <       0.00394212 Ry

     iteration # 14     ecut=    60.00 Ry     beta= 0.30
     Davidson diagonalization with overlap
     ethr =  1.29E-07,  avg # of iterations =  1.0

     negative rho (up, down):  9.369E-04 0.000E+00

     total cpu time spent up to now is    11842.0 secs

     total energy              =   -4074.94855160 Ry
     estimated scf accuracy    <       0.00046748 Ry

     iteration # 15     ecut=    60.00 Ry     beta= 0.30
     Davidson diagonalization with overlap
     ethr =  1.29E-07,  avg # of iterations =  1.0

     negative rho (up, down):  9.369E-04 0.000E+00

     total cpu time spent up to now is    12012.4 secs

     total energy              =   -4074.94854558 Ry
     estimated scf accuracy    <       0.00063859 Ry

     iteration # 16     ecut=    60.00 Ry     beta= 0.30
     Davidson diagonalization with overlap
     ethr =  1.29E-07,  avg # of iterations =  1.0

     negative rho (up, down):  9.369E-04 0.000E+00

     total cpu time spent up to now is    12182.9 secs

     total energy              =   -4074.94855579 Ry
     estimated scf accuracy    <       0.00011811 Ry

     iteration # 17     ecut=    60.00 Ry     beta= 0.30
     Davidson diagonalization with overlap
     ethr =  4.34E-08,  avg # of iterations =  1.0

     negative rho (up, down):  9.369E-04 0.000E+00

     total cpu time spent up to now is    12353.3 secs

     total energy              =   -4074.94855523 Ry
     estimated scf accuracy    <       0.00017988 Ry

     iteration # 18     ecut=    60.00 Ry     beta= 0.30
     Davidson diagonalization with overlap
     ethr =  4.34E-08,  avg # of iterations =  1.0

     negative rho (up, down):  9.369E-04 0.000E+00

     total cpu time spent up to now is    12523.7 secs

     total energy              =   -4074.94855975 Ry
     estimated scf accuracy    <       0.00004369 Ry

     iteration # 19     ecut=    60.00 Ry     beta= 0.30
     Davidson diagonalization with overlap
     ethr =  1.61E-08,  avg # of iterations =  1.0

     negative rho (up, down):  9.369E-04 0.000E+00

     total cpu time spent up to now is    12694.2 secs

     total energy              =   -4074.94856089 Ry
     estimated scf accuracy    <       0.00002101 Ry

     iteration # 20     ecut=    60.00 Ry     beta= 0.30
     Davidson diagonalization with overlap
     ethr =  7.72E-09,  avg # of iterations =  1.0

     negative rho (up, down):  9.369E-04 0.000E+00

     total cpu time spent up to now is    12864.6 secs

     total energy              =   -4074.94856111 Ry
     estimated scf accuracy    <       0.00000740 Ry

     iteration # 21     ecut=    60.00 Ry     beta= 0.30
     Davidson diagonalization with overlap
     ethr =  2.72E-09,  avg # of iterations =  1.0

     negative rho (up, down):  9.369E-04 0.000E+00

     total cpu time spent up to now is    13035.0 secs

     total energy              =   -4074.94856092 Ry
     estimated scf accuracy    <       0.00000743 Ry

     iteration # 22     ecut=    60.00 Ry     beta= 0.30
     Davidson diagonalization with overlap
     ethr =  2.72E-09,  avg # of iterations =  1.0

     negative rho (up, down):  9.368E-04 0.000E+00

     total cpu time spent up to now is    13205.4 secs

     total energy              =   -4074.94855995 Ry
     estimated scf accuracy    <       0.00018258 Ry

     iteration # 23     ecut=    60.00 Ry     beta= 0.30
     Davidson diagonalization with overlap
     ethr =  2.72E-09,  avg # of iterations =  1.0

     negative rho (up, down):  9.368E-04 0.000E+00

     total cpu time spent up to now is    13375.8 secs

     total energy              =   -4074.94856019 Ry
     estimated scf accuracy    <       0.00012336 Ry

     iteration # 24     ecut=    60.00 Ry     beta= 0.30
     Davidson diagonalization with overlap
     ethr =  2.72E-09,  avg # of iterations =  1.0

     negative rho (up, down):  9.369E-04 0.000E+00

     total cpu time spent up to now is    13546.3 secs

     total energy              =   -4074.94856075 Ry
     estimated scf accuracy    <       0.00002955 Ry

     iteration # 25     ecut=    60.00 Ry     beta= 0.30
     Davidson diagonalization with overlap
     ethr =  2.72E-09,  avg # of iterations =  1.0

     negative rho (up, down):  9.369E-04 0.000E+00

     total cpu time spent up to now is    13716.6 secs

     total energy              =   -4074.94856043 Ry
     estimated scf accuracy    <       0.00003039 Ry

     iteration # 26     ecut=    60.00 Ry     beta= 0.30
     Davidson diagonalization with overlap
     ethr =  2.72E-09,  avg # of iterations =  1.0

     negative rho (up, down):  9.369E-04 0.000E+00

     total cpu time spent up to now is    13887.1 secs

     total energy              =   -4074.94856098 Ry
     estimated scf accuracy    <       0.00000585 Ry

     iteration # 27     ecut=    60.00 Ry     beta= 0.30
     Davidson diagonalization with overlap
     ethr =  2.15E-09,  avg # of iterations =  1.0

     negative rho (up, down):  9.369E-04 0.000E+00

     total cpu time spent up to now is    14057.5 secs

     total energy              =   -4074.94856098 Ry
     estimated scf accuracy    <       0.00000503 Ry

     iteration # 28     ecut=    60.00 Ry     beta= 0.30
     Davidson diagonalization with overlap
     ethr =  1.85E-09,  avg # of iterations =  1.0

     negative rho (up, down):  9.368E-04 0.000E+00

     total cpu time spent up to now is    14227.9 secs

     total energy              =   -4074.94856102 Ry
     estimated scf accuracy    <       0.00000451 Ry

     iteration # 29     ecut=    60.00 Ry     beta= 0.30
     Davidson diagonalization with overlap
     ethr =  1.66E-09,  avg # of iterations =  1.0

     negative rho (up, down):  9.368E-04 0.000E+00

     total cpu time spent up to now is    14398.3 secs

     total energy              =   -4074.94856112 Ry
     estimated scf accuracy    <       0.00000141 Ry

     iteration # 30     ecut=    60.00 Ry     beta= 0.30
     Davidson diagonalization with overlap
     ethr =  5.17E-10,  avg # of iterations =  1.0

     negative rho (up, down):  9.368E-04 0.000E+00

     total cpu time spent up to now is    14568.7 secs

     total energy              =   -4074.94856115 Ry
     estimated scf accuracy    <       0.00000100 Ry

     iteration # 31     ecut=    60.00 Ry     beta= 0.30
     Davidson diagonalization with overlap
     ethr =  3.69E-10,  avg # of iterations =  1.0

     negative rho (up, down):  9.368E-04 0.000E+00

     total cpu time spent up to now is    14738.9 secs

     End of self-consistent calculation

          k = 0.0000 0.0000 0.0000 ( 44861 PWs)   bands (ev):

   -19.2344 -19.0607 -18.8254 -18.5686 -18.3226 -18.1242 -18.0144 -17.9990
   -17.9932 -17.9733 -17.9461 -17.9062 -17.8779 -17.0256 -17.0153 -15.9949
    -7.4733  -7.1433  -6.6918  -6.2060  -5.7646  -5.6211  -5.6162  -5.4311
    -5.3647  -5.3504  -5.2263  -5.2033  -5.1323  -5.0419  -5.0319  -4.9846
    -4.9562  -4.9520  -4.9201  -4.9069  -4.8475  -4.8341  -4.8025  -4.7839
    -4.7305  -4.7144  -4.6761  -4.6199  -4.5129  -4.4576  -4.4448  -4.1805
    -4.0945  -4.0245  -3.9195  -3.6979  -3.6423  -3.5991  -3.4141  -3.2803
    -3.2404  -3.1025  -3.0393  -2.8952  -2.7695  -2.6709  -2.6167  -2.5536
    -2.4805  -2.4678  -2.4072  -2.3710  -2.3561  -2.3324  -2.3117  -2.2795
    -2.2565  -2.2484  -2.2116  -2.2017  -2.1466  -2.1272  -2.1054  -2.0446
    -2.0214  -1.9759  -1.9623  -1.9440  -1.9175  -1.9123  -1.8847  -1.8719
    -1.8395  -1.8355  -1.8167  -1.7879  -1.7606  -1.7418  -1.7302  -1.6954
    -1.6611  -1.6381  -1.6066  -1.5835  -1.5640  -1.5511  -1.5452  -1.5287
    -1.5021  -1.4799  -1.4603  -1.4474  -1.4195  -1.3750  -1.3257  -1.3130
    -1.2526  -1.2220  -1.2056  -1.1937  -1.1744  -1.1241  -1.0664  -1.0172
    -0.9686  -0.9340  -0.8133  -0.7963  -0.7429  -0.5941  -0.5356  -0.3054
    -0.2618  -0.2120  -0.1312   0.0347   0.0535   0.2852   0.3970   0.4669
     0.5537   0.6098   0.6815   0.7715   0.8343   0.9688   1.0341   1.1340
     1.1703   2.2188   2.9459   3.6331   4.1047   4.4328   4.5229   4.5642
     4.8023   5.0425   5.2052   5.4719   5.6375   5.7765   5.8839   5.9696
     6.0342   6.2429   6.3133

          k = 0.0521-0.1691 0.0545 ( 44825 PWs)   bands (ev):

   -19.1068 -18.9424 -18.7232 -18.4908 -18.3366 -18.2845 -18.2359 -18.1491
   -18.1362 -18.0273 -17.8989 -17.8115 -17.7781 -17.0276 -17.0275 -16.0148
    -7.0935  -6.7743  -6.3494  -5.9472  -5.9320  -5.7331  -5.7267  -5.6849
    -5.6411  -5.4614  -5.4336  -5.4095  -5.2298  -5.1081  -5.0762  -4.9590
    -4.9210  -4.9013  -4.8784  -4.8517  -4.8398  -4.7686  -4.7091  -4.6380
    -4.6156  -4.5289  -4.4761  -4.4202  -4.3494  -4.2695  -4.2425  -4.2089
    -4.1456  -4.0585  -3.9350  -3.8926  -3.7299  -3.6450  -3.5630  -3.3895
    -3.3350  -3.2617  -3.0625  -2.9425  -2.8923  -2.8048  -2.7407  -2.6721
    -2.6470  -2.5856  -2.5250  -2.4834  -2.4350  -2.3609  -2.3006  -2.2700
    -2.2155  -2.1476  -2.1342  -2.1043  -2.0656  -2.0484  -2.0274  -2.0200
    -1.9905  -1.9776  -1.9444  -1.9340  -1.9140  -1.9029  -1.8898  -1.8658
    -1.8489  -1.8351  -1.8219  -1.8024  -1.7886  -1.7696  -1.7515  -1.7290
    -1.6817  -1.6545  -1.6278  -1.6150  -1.6033  -1.5888  -1.5633  -1.5368
    -1.5186  -1.4906  -1.4711  -1.4307  -1.3746  -1.3374  -1.3235  -1.2846
    -1.2679  -1.2193  -1.2113  -1.1919  -1.1634  -1.1201  -1.0997  -0.9999
    -0.9522  -0.8956  -0.8158  -0.7949  -0.7500  -0.7025  -0.6355  -0.4891
    -0.3891  -0.1763  -0.0784  -0.0099   0.1233   0.1921   0.3560   0.3954
     0.5085   0.6196   0.7258   0.8432   0.9032   0.9830   1.1378   1.2633
     1.4416   2.8130   3.3903   3.4058   3.8890   4.0197   4.2889   4.5028
     4.7413   5.1356   5.2423   5.3516   5.4599   5.6890   5.8819   6.0331
     6.2516   6.3326   6.4200

          k =-0.1042 0.3382-0.1091 ( 44806 PWs)   bands (ev):

   -18.7698 -18.7632 -18.6434 -18.6199 -18.4758 -18.4430 -18.2918 -18.2816
   -18.2047 -18.0765 -17.9045 -17.7875 -17.7343 -17.0396 -17.0295 -16.0346
    -6.2553  -6.2498  -6.1195  -5.9580  -5.9410  -5.9174  -5.8661  -5.6520
    -5.5802  -5.5735  -5.4910  -5.3605  -5.3065  -5.2462  -5.2452  -5.1951
    -5.0346  -4.9976  -4.8637  -4.8432  -4.8325  -4.8106  -4.8010  -4.7060
    -4.6540  -4.5725  -4.5276  -4.4409  -4.3373  -4.2392  -4.1698  -4.1090
    -3.9874  -3.8870  -3.8154  -3.7985  -3.6814  -3.6342  -3.5202  -3.4871
    -3.4300  -3.3916  -3.3000  -2.9814  -2.9446  -2.8608  -2.7692  -2.7593
    -2.7174  -2.5961  -2.5767  -2.5468  -2.3936  -2.3784  -2.3493  -2.2821
    -2.1941  -2.1800  -2.1287  -2.0942  -2.0873  -2.0715  -2.0644  -2.0113
    -2.0001  -1.9814  -1.9604  -1.9504  -1.9310  -1.8969  -1.8841  -1.8674
    -1.8604  -1.8543  -1.8370  -1.8073  -1.7825  -1.7715  -1.7649  -1.7481
    -1.7273  -1.6997  -1.6610  -1.6421  -1.6328  -1.6242  -1.5946  -1.5443
    -1.5350  -1.4821  -1.4360  -1.4187  -1.3595  -1.3207  -1.3066  -1.2373
    -1.2054  -1.1760  -1.1628  -1.1469  -1.1049  -1.0750  -1.0625  -1.0249
    -0.9890  -0.9459  -0.8640  -0.8038  -0.7700  -0.6662  -0.5698  -0.5320
    -0.3010  -0.2388  -0.0445   0.0658   0.1425   0.1695   0.2931   0.3910
     0.4360   0.4864   0.5277   0.6007   0.7333   1.0422   1.3345   1.5299
     1.8169   2.9624   3.6132   3.6558   3.9914   4.0620   4.2849   4.3814
     4.4657   4.6611   4.8451   5.4032   5.6787   5.7756   5.9116   6.1116
     6.2164   6.4970   6.7125

          k =-0.1547-0.0846 0.2000 ( 44829 PWs)   bands (ev):

   -19.0545 -18.9124 -18.7278 -18.5364 -18.3610 -18.2215 -18.1365 -18.0951
   -18.0362 -17.9783 -17.9175 -17.8679 -17.8537 -17.0436 -17.0135 -15.9940
    -7.1217  -6.8463  -6.4890  -6.1334  -6.1192  -5.8732  -5.7956  -5.7794
    -5.5869  -5.5457  -5.4531  -5.4077  -5.3039  -5.2753  -5.2035  -5.1454
    -5.0810  -5.0573  -5.0156  -4.9964  -4.9509  -4.8912  -4.8476  -4.8210
    -4.7649  -4.7155  -4.6584  -4.5095  -4.3805  -4.3624  -4.1715  -4.0629
    -4.0271  -3.9014  -3.8399  -3.7383  -3.6205  -3.5324  -3.4856  -3.3878
    -3.2825  -3.2022  -3.0613  -2.9340  -2.8278  -2.7771  -2.6934  -2.6277
    -2.5705  -2.4821  -2.4723  -2.3696  -2.3346  -2.3029  -2.2630  -2.2288
    -2.1951  -2.1755  -2.1504  -2.1291  -2.0949  -2.0710  -2.0348  -2.0019
    -1.9802  -1.9653  -1.9290  -1.9210  -1.9077  -1.9020  -1.8921  -1.8808
    -1.8747  -1.8553  -1.8409  -1.8295  -1.8048  -1.7686  -1.7564  -1.7320
    -1.6999  -1.6664  -1.6468  -1.6407  -1.6177  -1.5840  -1.5728  -1.5509
    -1.5048  -1.4837  -1.4555  -1.4010  -1.3752  -1.3649  -1.3470  -1.2991
    -1.2861  -1.2772  -1.2359  -1.1994  -1.1842  -1.1566  -1.1174  -1.0387
    -1.0028  -0.9680  -0.8245  -0.8124  -0.7703  -0.5888  -0.5793  -0.2328
    -0.0939  -0.0289   0.0516   0.1149   0.2034   0.2845   0.4175   0.4831
     0.5996   0.6672   0.7897   0.8786   0.9183   0.9695   1.0069   1.1196
     1.6140   3.2131   3.7016   4.1804   4.4635   4.6037   4.6744   4.7981
     5.1537   5.3125   5.5700   5.6530   5.7311   5.8118   5.9276   5.9954
     6.1541   6.2669   6.4389

          k =-0.1026-0.2537 0.2545 ( 44738 PWs)   bands (ev):

   -18.8404 -18.7179 -18.5773 -18.5067 -18.4256 -18.3846 -18.3317 -18.2974
   -18.1851 -18.0290 -17.8954 -17.8081 -17.7737 -17.0465 -17.0259 -16.0142
    -6.5829  -6.3359  -6.2359  -6.0859  -6.0491  -6.0111  -5.9309  -5.8568
    -5.7946  -5.7085  -5.5215  -5.5119  -5.4177  -5.2167  -5.1686  -5.1035
    -5.0183  -4.9958  -4.9518  -4.9116  -4.8842  -4.8340  -4.8072  -4.7794
    -4.7572  -4.6990  -4.6147  -4.5214  -4.4492  -4.3268  -4.2800  -4.2358
    -4.0457  -3.9209  -3.8790  -3.7535  -3.6319  -3.5847  -3.5452  -3.5175
    -3.3884  -3.3321  -3.1929  -3.1599  -2.8662  -2.7661  -2.7048  -2.6644
    -2.5757  -2.5521  -2.4852  -2.3756  -2.3622  -2.3202  -2.2455  -2.1966
    -2.1657  -2.1378  -2.1131  -2.0952  -2.0672  -2.0474  -2.0246  -2.0140
    -2.0052  -1.9845  -1.9572  -1.9483  -1.9392  -1.9214  -1.8909  -1.8818
    -1.8639  -1.8162  -1.7903  -1.7741  -1.7576  -1.7471  -1.7296  -1.7040
    -1.6871  -1.6615  -1.6495  -1.6299  -1.6083  -1.5865  -1.5413  -1.5027
    -1.4730  -1.4514  -1.4163  -1.3810  -1.3641  -1.3441  -1.3198  -1.2827
    -1.2704  -1.2178  -1.2115  -1.1835  -1.1479  -1.1124  -1.0813  -1.0254
    -0.9604  -0.9233  -0.8196  -0.7729  -0.7416  -0.6996  -0.6857  -0.5364
    -0.3861  -0.2004  -0.1461  -0.0327   0.0963   0.1467   0.2807   0.3272
     0.6170   0.6736   0.7768   0.8677   0.8990   1.0151   1.1909   1.3248
     2.0299   3.9988   4.1044   4.2277   4.4375   4.5504   4.6818   4.7881
     4.9370   5.1152   5.2707   5.5865   5.6352   5.7652   5.8928   6.0742
     6.2596   6.3169   6.7610

          k =-0.2589 0.2537 0.0909 ( 44738 PWs)   bands (ev):

   -18.8405 -18.7180 -18.5743 -18.5024 -18.4183 -18.3934 -18.3292 -18.3087
   -18.1847 -18.0279 -17.8944 -17.8074 -17.7731 -17.0427 -17.0169 -16.0329
    -6.5832  -6.3375  -6.2307  -6.0861  -6.0521  -6.0018  -5.9243  -5.8465
    -5.7977  -5.6993  -5.5637  -5.5060  -5.4345  -5.2153  -5.1647  -5.0924
    -5.0235  -4.9990  -4.9358  -4.9054  -4.8771  -4.8378  -4.8192  -4.7990
    -4.7500  -4.6970  -4.6079  -4.5281  -4.4600  -4.3566  -4.2584  -4.1630
    -4.0734  -3.8780  -3.8176  -3.7853  -3.6596  -3.6047  -3.5563  -3.4334
    -3.3945  -3.3372  -3.2054  -3.0710  -2.8776  -2.7893  -2.6924  -2.6761
    -2.5656  -2.5524  -2.5185  -2.3914  -2.3505  -2.3259  -2.2906  -2.2122
    -2.1541  -2.1399  -2.1019  -2.0804  -2.0661  -2.0462  -2.0247  -2.0079
    -1.9939  -1.9776  -1.9577  -1.9520  -1.9432  -1.9219  -1.8962  -1.8830
    -1.8777  -1.8266  -1.8185  -1.7882  -1.7632  -1.7459  -1.7352  -1.7056
    -1.6866  -1.6686  -1.6569  -1.6386  -1.6105  -1.5686  -1.5642  -1.5185
    -1.5092  -1.4822  -1.4103  -1.3880  -1.3491  -1.3201  -1.3041  -1.2822
    -1.2418  -1.2211  -1.1920  -1.1669  -1.1478  -1.1335  -1.0885  -1.0441
    -0.9482  -0.9150  -0.8683  -0.8283  -0.7925  -0.6459  -0.5905  -0.5147
    -0.3692  -0.1942  -0.1212  -0.0140   0.1158   0.1405   0.2469   0.3164
     0.4718   0.6426   0.7462   0.8491   0.9155   1.0166   1.1945   1.3274
     2.1158   4.0746   4.1191   4.3397   4.4227   4.5089   4.6813   4.8373
     4.9485   5.1090   5.3829   5.5567   5.6249   5.7286   5.8436   6.0361
     6.2643   6.3813   6.8349

          k =-0.2068 0.0846 0.1454 ( 44829 PWs)   bands (ev):

   -19.0544 -18.9121 -18.7269 -18.5352 -18.3592 -18.2262 -18.1318 -18.0990
   -18.0423 -17.9789 -17.9157 -17.8614 -17.8552 -17.0299 -17.0150 -16.0122
    -7.1216  -6.8457  -6.4867  -6.1328  -6.1145  -5.8733  -5.7984  -5.7685
    -5.5954  -5.5519  -5.4539  -5.4164  -5.2935  -5.2809  -5.2083  -5.1409
    -5.0864  -5.0749  -5.0191  -4.9947  -4.9381  -4.8879  -4.8535  -4.8101
    -4.7883  -4.6943  -4.6327  -4.5192  -4.4093  -4.3112  -4.1831  -4.0784
    -4.0017  -3.9204  -3.8157  -3.7208  -3.5957  -3.5277  -3.3989  -3.3519
    -3.3290  -3.1929  -3.1059  -2.9470  -2.8143  -2.7270  -2.6715  -2.6474
    -2.5765  -2.5224  -2.4805  -2.3797  -2.3484  -2.3244  -2.2770  -2.2234
    -2.2118  -2.1818  -2.1433  -2.1224  -2.0952  -2.0848  -2.0333  -2.0031
    -1.9875  -1.9645  -1.9369  -1.9223  -1.9146  -1.9109  -1.8964  -1.8892
    -1.8765  -1.8614  -1.8407  -1.8159  -1.8026  -1.7742  -1.7416  -1.7214
    -1.6943  -1.6677  -1.6575  -1.6466  -1.6270  -1.5910  -1.5810  -1.5535
    -1.5233  -1.4806  -1.4259  -1.4095  -1.3698  -1.3389  -1.3193  -1.3031
    -1.2841  -1.2633  -1.2490  -1.2084  -1.1786  -1.1390  -1.0952  -1.0866
    -1.0257  -0.9691  -0.8581  -0.8515  -0.7254  -0.6151  -0.5261  -0.2783
    -0.1647  -0.0194   0.1032   0.1641   0.2501   0.3182   0.4191   0.4407
     0.5557   0.6242   0.7379   0.8253   0.9133   0.9507   1.0097   1.1033
     1.7100   3.2223   3.7492   4.2875   4.4998   4.6264   4.7067   4.8465
     5.0226   5.4243   5.5275   5.6023   5.7111   5.7918   5.8844   6.0324
     6.1940   6.3643   6.4724

          k = 0.3094 0.1691-0.4000 ( 44682 PWs)   bands (ev):

   -18.7045 -18.6697 -18.6142 -18.5491 -18.4871 -18.4480 -18.2907 -18.1244
   -18.0649 -17.9942 -17.9159 -17.8525 -17.8347 -17.0640 -17.0113 -15.9930
    -6.4933  -6.4843  -6.3916  -6.2934  -6.1850  -6.1417  -6.0898  -6.0177
    -5.9254  -5.8383  -5.6424  -5.6270  -5.5115  -5.3797  -5.2664  -5.1541
    -5.1320  -5.0632  -5.0490  -4.9800  -4.9534  -4.9340  -4.8732  -4.8203
    -4.7610  -4.7297  -4.6455  -4.5071  -4.4721  -4.3839  -4.1620  -4.1527
    -3.9764  -3.9355  -3.8324  -3.7364  -3.6489  -3.5872  -3.5487  -3.4662
    -3.4435  -3.3221  -3.0494  -2.9408  -2.8757  -2.6660  -2.5968  -2.5635
    -2.4683  -2.4587  -2.3784  -2.2921  -2.2706  -2.1940  -2.1680  -2.1548
    -2.1460  -2.1420  -2.1295  -2.1208  -2.1154  -2.1091  -2.1006  -2.0719
    -2.0574  -2.0478  -2.0032  -1.9746  -1.9651  -1.9498  -1.9414  -1.9289
    -1.9020  -1.8565  -1.8270  -1.8011  -1.7718  -1.7288  -1.7236  -1.7020
    -1.6882  -1.6312  -1.6242  -1.6172  -1.5986  -1.5777  -1.5214  -1.5009
    -1.4805  -1.4518  -1.4478  -1.3935  -1.3779  -1.3657  -1.3385  -1.2945
    -1.2652  -1.2584  -1.2267  -1.2097  -1.1879  -1.1427  -1.1377  -1.0601
    -0.9736  -0.9706  -0.9361  -0.9012  -0.8760  -0.6210  -0.5560  -0.1043
    -0.0581  -0.0394   0.0926   0.1301   0.2065   0.2977   0.3170   0.4925
     0.6653   0.7092   0.8090   0.8658   0.9335   0.9633   1.0456   1.1826
     2.5095   3.9392   4.4023   4.7580   4.8488   4.8615   4.9108   4.9934
     5.3011   5.5720   5.6063   5.7137   5.7799   5.8553   6.1371   6.1660
     6.4707   6.7984   7.2245

          k = 0.3615 0.0000-0.3454 ( 44687 PWs)   bands (ev):

   -18.7244 -18.6683 -18.6066 -18.5465 -18.4791 -18.4008 -18.3051 -18.1885
   -18.0690 -17.9725 -17.9013 -17.8487 -17.8391 -17.0336 -17.0282 -16.0116
    -6.5198  -6.4007  -6.3505  -6.3452  -6.2598  -6.1436  -6.0481  -5.9953
    -5.9697  -5.8854  -5.7003  -5.5528  -5.5277  -5.4379  -5.1937  -5.1498
    -5.1130  -5.0422  -5.0337  -4.9619  -4.9071  -4.8960  -4.8461  -4.8044
    -4.7832  -4.7667  -4.6277  -4.5541  -4.4843  -4.3414  -4.2010  -4.1451
    -4.0413  -3.8815  -3.8181  -3.7661  -3.6874  -3.6202  -3.5343  -3.4377
    -3.3408  -3.1844  -3.1502  -3.0400  -2.7859  -2.7460  -2.5884  -2.5813
    -2.5210  -2.4747  -2.4320  -2.3376  -2.2766  -2.2190  -2.1689  -2.1535
    -2.1413  -2.1348  -2.1243  -2.1120  -2.1079  -2.1005  -2.0888  -2.0730
    -2.0585  -2.0440  -2.0301  -1.9999  -1.9589  -1.9369  -1.9098  -1.8914
    -1.8558  -1.8422  -1.8289  -1.7986  -1.7703  -1.7559  -1.7276  -1.7063
    -1.6797  -1.6467  -1.6195  -1.5768  -1.5470  -1.5352  -1.5011  -1.4953
    -1.4793  -1.4465  -1.4187  -1.3941  -1.3662  -1.3489  -1.3242  -1.2884
    -1.2563  -1.2504  -1.2376  -1.1936  -1.1788  -1.1605  -1.1346  -1.1125
    -1.0736  -1.0151  -0.9187  -0.8950  -0.8316  -0.5933  -0.5769  -0.1601
    -0.1059  -0.0584   0.0290   0.1181   0.1671   0.3054   0.3894   0.4502
     0.5374   0.6776   0.7918   0.9001   0.9939   1.0177   1.0673   1.1708
     2.4862   4.1833   4.5440   4.6043   4.6610   4.8680   5.0321   5.1771
     5.2657   5.4240   5.6272   5.7289   5.8196   5.9421   6.0685   6.2025
     6.4420   6.8457   7.0812

          k = 0.2051 0.5073-0.5091 ( 44682 PWs)   bands (ev):

   -18.7041 -18.6693 -18.6150 -18.5497 -18.4827 -18.4402 -18.2993 -18.1286
   -18.0709 -17.9947 -17.9134 -17.8484 -17.8323 -17.0461 -17.0031 -16.0313
    -6.4925  -6.4856  -6.3880  -6.2944  -6.1889  -6.1341  -6.0815  -5.9989
    -5.9225  -5.8491  -5.6858  -5.6153  -5.5230  -5.3853  -5.2652  -5.1730
    -5.1255  -5.0643  -5.0424  -4.9464  -4.9446  -4.9258  -4.8806  -4.8183
    -4.7767  -4.7307  -4.6752  -4.5353  -4.4674  -4.2523  -4.1706  -4.0774
    -3.9351  -3.9036  -3.7982  -3.7314  -3.6882  -3.6362  -3.5191  -3.4084
    -3.3968  -3.3329  -3.1886  -2.9825  -2.8599  -2.6235  -2.5889  -2.5558
    -2.4913  -2.4616  -2.3809  -2.3294  -2.2895  -2.2510  -2.1728  -2.1630
    -2.1493  -2.1392  -2.1310  -2.1177  -2.1138  -2.1008  -2.0848  -2.0778
    -2.0711  -2.0476  -2.0253  -1.9850  -1.9661  -1.9481  -1.9375  -1.9265
    -1.9084  -1.8771  -1.8367  -1.8147  -1.7896  -1.7577  -1.7315  -1.7152
    -1.6623  -1.6355  -1.6258  -1.6119  -1.5941  -1.5707  -1.5341  -1.5258
    -1.4677  -1.4453  -1.4311  -1.3881  -1.3482  -1.3333  -1.3011  -1.2689
    -1.2528  -1.2333  -1.2233  -1.1826  -1.1695  -1.1479  -1.1158  -1.1000
    -1.0510  -1.0355  -0.9090  -0.8456  -0.7628  -0.6641  -0.4320  -0.2892
    -0.1900  -0.0099   0.0760   0.1981   0.2376   0.3384   0.4165   0.4426
     0.6021   0.6113   0.7241   0.8391   0.8735   0.9762   1.0402   1.1217
     2.4735   4.3905   4.4830   4.7445   4.8376   4.8566   4.9479   5.1313
     5.2419   5.3624   5.6784   5.7848   5.8063   5.9646   6.0450   6.1942
     6.3844   6.8747   7.0998

     the Fermi energy is     0.4893 ev

!    total energy              =   -4074.94856080 Ry
     total all-electron energy =    -55366.575097 Ry
     estimated scf accuracy    <       0.00000046 Ry
     smearing contrib. (-TS)   =       0.00193499 Ry
     internal energy E=F+TS    =   -4074.95049579 Ry

     The total energy is F=E-TS. E is the sum of the following terms:
     one-electron contribution =  -47369.58724646 Ry
     hartree contribution      =   23916.71561923 Ry
     xc contribution           =    -830.62183334 Ry
     ewald contribution        =   21798.50152454 Ry
     one-center paw contrib.   =   -1589.95855976 Ry

     convergence has been achieved in  31 iterations

     negative rho (up, down):  9.368E-04 0.000E+00

     Forces acting on atoms (cartesian axes, Ry/au):

     atom    1 type  1   force =    -0.00040892   -0.01280115   -0.04044479
     atom    2 type  1   force =    -0.01544751    0.02529639    0.00962556
     atom    3 type  1   force =     0.00035205   -0.00118900   -0.00548135
     atom    4 type  1   force =    -0.01474999   -0.00833286   -0.00409761
     atom    5 type  1   force =    -0.00072178   -0.00036509   -0.00095867
     atom    6 type  1   force =    -0.00038064   -0.00239807   -0.00257302
     atom    7 type  1   force =    -0.00040077   -0.00012793   -0.00002761
     atom    8 type  1   force =    -0.00049717    0.00007095   -0.00058352
     atom    9 type  1   force =    -0.00064159    0.00022594   -0.00020040
     atom   10 type  1   force =    -0.00010407   -0.00008280    0.00027617
     atom   11 type  1   force =    -0.00265845    0.00084836    0.00094787
     atom   12 type  1   force =    -0.00034784    0.00059673    0.00054906
     atom   13 type  1   force =     0.00151812    0.01042445    0.01968146
     atom   14 type  1   force =     0.00790211   -0.00381257    0.00257634
     atom   15 type  1   force =    -0.01695745    0.00278996   -0.02568767
     atom   16 type  1   force =     0.02235771   -0.00423987   -0.00606516
     atom   17 type  2   force =    -0.01530478    0.02129346    0.02254694
     atom   18 type  2   force =     0.04103857   -0.02585981    0.03693424
     atom   19 type  2   force =    -0.00661881   -0.00633460   -0.00434902
     atom   20 type  2   force =     0.01470426    0.01484836   -0.01036841
     atom   21 type  2   force =    -0.00145143   -0.00055011    0.00143615
     atom   22 type  2   force =    -0.00214996   -0.00375522   -0.00288206
     atom   23 type  2   force =    -0.00107894    0.00050164    0.00146325
     atom   24 type  2   force =     0.00101002    0.00046123   -0.00124712
     atom   25 type  2   force =    -0.00092162   -0.00007280    0.00142524
     atom   26 type  2   force =     0.00133665   -0.00007934   -0.00068945
     atom   27 type  2   force =    -0.00272379    0.00068741    0.00138020
     atom   28 type  2   force =     0.00195548    0.00103084   -0.00062970
     atom   29 type  2   force =    -0.02185684   -0.01782110    0.00186827
     atom   30 type  2   force =     0.00470998    0.00250915    0.00268933
     atom   31 type  2   force =    -0.01210015    0.02631279    0.00428403
     atom   32 type  2   force =     0.02063754   -0.02007533   -0.00139854

     Total force =     0.115602     Total SCF correction =     0.002453
     Energy error            =      2.0E-02 Ry
     Gradient error          =      4.1E-02 Ry/Bohr

     number of scf cycles    =   2
     number of bfgs steps    =   1

     energy             old  =   -4074.9282274669 Ry
     energy             new  =   -4074.9485608036 Ry

     CASE: energy            _new < energy            _old

     new trust radius        =       0.0865787435 bohr
     new conv_thr            =       0.0000004104 Ry


ATOMIC_POSITIONS (angstrom)
Cu               7.4149252127        2.5565504051       10.0474863083
Cu               8.7801139204        0.0362216190        8.6392526456
Cu              10.3537281219        2.5756368862       10.2399811517
Cu               6.0028648466        5.1431628245       11.5918822576
[...]
    -2.0230  -2.0047  -1.9947  -1.9683  -1.9511  -1.9379  -1.9356  -1.8881
    -1.8572  -1.8315  -1.8009  -1.7848  -1.7517  -1.7339  -1.7112  -1.6998
    -1.6863  -1.6614  -1.6410  -1.5928  -1.5406  -1.5151  -1.4983  -1.4799
    -1.4303  -1.4077  -1.3707  -1.3560  -1.3206  -1.3023  -1.2490  -1.1666
    -1.1030  -1.0314  -1.0064  -0.9465  -0.8993  -0.8463  -0.6759  -0.5855
    -0.5109  -0.3665  -0.2603  -0.1517  -0.0207   0.0379   0.2504   0.2769
     0.3683   0.4796   0.6239   0.7001   0.7681   0.8766   1.0249   1.1388
     1.5736   2.6954   3.2571   3.3828   3.8407   4.0206   4.3593   4.5867
     4.7966   5.0689   5.1245   5.3638   5.5469   5.6819   5.9266   6.0213
     6.1420   6.3149   6.3564

          k =-0.1042 0.3382-0.1091 ( 44806 PWs)   bands (ev):

   -18.9220 -18.8653 -18.8264 -18.7683 -18.6383 -18.6115 -18.4599 -18.4458
   -18.3448 -18.2209 -18.0294 -17.8987 -17.8381 -17.5636 -17.4300 -16.7378
    -6.3766  -6.3439  -6.2525  -6.1612  -6.0832  -6.0469  -6.0396  -5.8535
    -5.7940  -5.7533  -5.6775  -5.5317  -5.5086  -5.4695  -5.4357  -5.3966
    -5.3233  -5.2052  -5.0698  -4.9947  -4.9774  -4.9419  -4.9268  -4.9072
    -4.8555  -4.8168  -4.7269  -4.6564  -4.5432  -4.5196  -4.3841  -4.2981
    -4.2245  -4.0982  -4.0319  -3.9449  -3.8582  -3.7947  -3.7039  -3.6641
    -3.6214  -3.5693  -3.5079  -3.4759  -3.4368  -3.3366  -3.1959  -2.9719
    -2.9282  -2.8536  -2.8039  -2.7465  -2.6448  -2.6238  -2.5170  -2.4870
    -2.4261  -2.4135  -2.3144  -2.2941  -2.2751  -2.2591  -2.2402  -2.2254
    -2.2107  -2.1693  -2.1594  -2.1414  -2.1109  -2.0994  -2.0946  -2.0640
    -2.0364  -2.0166  -2.0062  -1.9968  -1.9807  -1.9468  -1.9312  -1.9038
    -1.8736  -1.8589  -1.8275  -1.8131  -1.7747  -1.7678  -1.7502  -1.7170
    -1.6996  -1.6714  -1.6310  -1.5858  -1.5473  -1.5027  -1.4430  -1.4139
    -1.3760  -1.3572  -1.3358  -1.3016  -1.2615  -1.2387  -1.2291  -1.2074
    -1.1529  -1.0937  -1.0234  -0.9295  -0.9075  -0.8026  -0.7108  -0.5269
    -0.5080  -0.4030  -0.2135  -0.1032  -0.0621   0.0602   0.1704   0.2764
     0.3100   0.3439   0.3940   0.4949   0.6432   0.9434   1.2342   1.4047
     1.9333   2.8702   3.6025   3.7391   3.8593   4.0019   4.2453   4.3144
     4.4544   4.7080   4.8405   5.3120   5.6560   5.9101   5.9173   6.1905
     6.4619   6.5505   6.7632

          k =-0.1547-0.0846 0.2000 ( 44829 PWs)   bands (ev):

   -19.1799 -19.0953 -18.9012 -18.7225 -18.5354 -18.3650 -18.2758 -18.2088
   -18.1768 -18.1138 -18.0531 -17.9889 -17.9231 -17.5381 -17.4773 -16.6876
    -7.2427  -7.0508  -6.7109  -6.3761  -6.2395  -6.0373  -5.9924  -5.9599
    -5.7771  -5.6981  -5.6411  -5.5863  -5.5050  -5.4591  -5.4028  -5.3627
    -5.2764  -5.2127  -5.1937  -5.1685  -5.1346  -5.0547  -5.0363  -4.9770
    -4.9483  -4.8976  -4.8345  -4.7349  -4.6271  -4.5359  -4.4388  -4.2866
    -4.2473  -4.1546  -3.9904  -3.9457  -3.8990  -3.8184  -3.7048  -3.6479
    -3.5205  -3.4775  -3.3584  -3.2016  -3.1503  -3.0653  -2.9325  -2.8565
    -2.7901  -2.7426  -2.7021  -2.5963  -2.5664  -2.5009  -2.4829  -2.4379
    -2.4138  -2.3655  -2.3424  -2.3285  -2.3020  -2.2678  -2.2452  -2.2175
    -2.1879  -2.1698  -2.1406  -2.1108  -2.0989  -2.0697  -2.0592  -2.0434
    -2.0348  -2.0215  -2.0082  -1.9959  -1.9814  -1.9674  -1.9313  -1.9135
    -1.8853  -1.8508  -1.8343  -1.7992  -1.7812  -1.7606  -1.7458  -1.7229
    -1.7119  -1.6416  -1.6149  -1.5659  -1.5489  -1.5091  -1.4824  -1.4590
    -1.4467  -1.4217  -1.4132  -1.3952  -1.3558  -1.2796  -1.2448  -1.2085
    -1.1505  -1.1126  -0.9704  -0.9127  -0.9026  -0.7281  -0.7092  -0.3747
    -0.2545  -0.2156  -0.0909  -0.0557   0.0389   0.1019   0.2618   0.3062
     0.4467   0.5091   0.6451   0.7130   0.7949   0.8414   0.8765   1.0800
     1.8638   3.0840   3.6629   4.2211   4.4215   4.5295   4.6291   4.7289
     5.1323   5.2885   5.4522   5.6069   5.6802   5.8648   5.9613   6.0278
     6.1179   6.3490   6.4435

          k =-0.1026-0.2537 0.2545 ( 44738 PWs)   bands (ev):

   -18.9712 -18.9023 -18.7468 -18.6381 -18.5969 -18.5148 -18.4808 -18.4442
   -18.3514 -18.1698 -18.0224 -17.9168 -17.8698 -17.5500 -17.4669 -16.7161
    -6.6983  -6.5300  -6.3642  -6.2663  -6.2022  -6.1538  -6.1156  -6.0804
    -5.9622  -5.8776  -5.7783  -5.7094  -5.5651  -5.4621  -5.3585  -5.3157
    -5.2169  -5.1807  -5.1289  -5.0933  -5.0379  -5.0101  -4.9868  -4.9435
    -4.9255  -4.9051  -4.8104  -4.7172  -4.6014  -4.5517  -4.5089  -4.3833
    -4.2714  -4.1841  -4.1232  -3.9984  -3.9337  -3.8629  -3.7319  -3.6928
    -3.6190  -3.5596  -3.4760  -3.4068  -3.3109  -3.1202  -3.0076  -2.8825
    -2.8250  -2.7764  -2.7306  -2.6313  -2.5655  -2.5260  -2.4820  -2.4173
    -2.3921  -2.3222  -2.2957  -2.2651  -2.2484  -2.2344  -2.2201  -2.2089
    -2.1810  -2.1568  -2.1436  -2.1211  -2.1106  -2.0925  -2.0716  -2.0642
    -2.0406  -2.0221  -1.9957  -1.9802  -1.9442  -1.9306  -1.9149  -1.8944
    -1.8627  -1.8293  -1.8150  -1.8025  -1.7735  -1.7553  -1.7107  -1.6846
    -1.6451  -1.6370  -1.5973  -1.5489  -1.5297  -1.5055  -1.4745  -1.4379
    -1.4156  -1.4035  -1.3892  -1.3385  -1.3271  -1.3016  -1.2588  -1.2120
    -1.1330  -1.0704  -0.9933  -0.9395  -0.8930  -0.8682  -0.7448  -0.6471
    -0.5316  -0.3505  -0.2786  -0.2041  -0.0355   0.0443   0.1155   0.1591
     0.4693   0.5438   0.6638   0.7290   0.7817   0.9124   1.0799   1.2020
     2.2672   3.9165   3.9935   4.2304   4.3485   4.5592   4.7006   4.7559
     4.8899   5.0869   5.2878   5.5051   5.5404   5.6834   5.8497   6.0630
     6.3521   6.5459   6.9943

          k =-0.2589 0.2537 0.0909 ( 44738 PWs)   bands (ev):

   -18.9615 -18.8912 -18.7410 -18.6508 -18.5992 -18.5385 -18.4845 -18.4424
   -18.3376 -18.1682 -18.0201 -17.9157 -17.8689 -17.5751 -17.4248 -16.7482
    -6.6806  -6.4945  -6.3586  -6.2269  -6.1841  -6.1529  -6.1158  -6.0366
    -5.9912  -5.9185  -5.7952  -5.7351  -5.6282  -5.4240  -5.3601  -5.3020
    -5.2498  -5.1865  -5.1164  -5.0840  -5.0293  -5.0132  -4.9943  -4.9313
    -4.9054  -4.8822  -4.8265  -4.7063  -4.6413  -4.6067  -4.4118  -4.3631
    -4.2795  -4.1853  -4.1353  -4.0390  -3.9332  -3.8084  -3.7310  -3.6390
    -3.5864  -3.5347  -3.4923  -3.4152  -3.2565  -3.1947  -3.0121  -2.8756
    -2.8403  -2.7853  -2.7476  -2.6456  -2.5970  -2.5176  -2.4691  -2.4217
    -2.3489  -2.3175  -2.2925  -2.2743  -2.2680  -2.2468  -2.2295  -2.1977
    -2.1824  -2.1641  -2.1576  -2.1418  -2.1189  -2.0987  -2.0781  -2.0654
    -2.0584  -2.0129  -2.0039  -1.9723  -1.9374  -1.9212  -1.8939  -1.8775
    -1.8562  -1.8353  -1.8104  -1.8015  -1.7823  -1.7557  -1.7321  -1.7084
    -1.6896  -1.6549  -1.6015  -1.5631  -1.5323  -1.4962  -1.4667  -1.4536
    -1.4186  -1.3870  -1.3749  -1.3412  -1.3202  -1.2914  -1.2714  -1.2298
    -1.1284  -1.0954  -1.0380  -0.9983  -0.9606  -0.8843  -0.7424  -0.6270
    -0.4544  -0.3276  -0.1868  -0.1356  -0.0134   0.0573   0.1369   0.1665
     0.3183   0.5043   0.6249   0.6929   0.7920   0.9082   1.0906   1.2152
     2.4268   3.9410   4.0014   4.3170   4.3565   4.4695   4.6577   4.7663
     4.9823   5.0683   5.3436   5.5341   5.5870   5.6643   5.8675   6.0623
     6.3012   6.5599   6.9868

          k =-0.2068 0.0846 0.1454 ( 44829 PWs)   bands (ev):

   -19.1764 -19.0907 -18.9003 -18.7231 -18.5291 -18.3766 -18.2975 -18.2021
   -18.1706 -18.1142 -18.0418 -17.9824 -17.9298 -17.5618 -17.4378 -16.7177
    -7.2339  -7.0345  -6.6942  -6.3635  -6.2369  -6.0261  -5.9843  -5.9644
    -5.8165  -5.7055  -5.6490  -5.5756  -5.5154  -5.4679  -5.4235  -5.3140
    -5.2771  -5.2083  -5.1964  -5.1478  -5.1397  -5.1049  -5.0167  -4.9742
    -4.9139  -4.8965  -4.8106  -4.7268  -4.6545  -4.5254  -4.4673  -4.3051
    -4.2147  -4.1365  -4.0218  -3.9953  -3.8232  -3.7608  -3.6825  -3.5651
    -3.5168  -3.4962  -3.3467  -3.2573  -3.1910  -3.0918  -2.9365  -2.8749
    -2.8256  -2.7566  -2.6823  -2.6491  -2.5799  -2.4976  -2.4700  -2.4376
    -2.4098  -2.3624  -2.3301  -2.3044  -2.2767  -2.2733  -2.2404  -2.2008
    -2.1855  -2.1737  -2.1522  -2.1151  -2.1005  -2.0697  -2.0540  -2.0478
    -2.0341  -2.0295  -2.0151  -1.9975  -1.9800  -1.9706  -1.9221  -1.9193
    -1.8875  -1.8444  -1.8243  -1.8089  -1.7874  -1.7624  -1.7531  -1.7212
    -1.6857  -1.6474  -1.6234  -1.5911  -1.5617  -1.5110  -1.4778  -1.4679
    -1.4205  -1.4173  -1.4097  -1.3665  -1.3442  -1.3174  -1.2776  -1.2609
    -1.1791  -1.1085  -1.0228  -0.9944  -0.9102  -0.7243  -0.7146  -0.4046
    -0.2874  -0.1398  -0.0356   0.0270   0.0924   0.1648   0.2621   0.3019
     0.3902   0.4826   0.5964   0.6830   0.7821   0.8260   0.8793   1.0352
     2.0056   3.0933   3.7002   4.2931   4.4244   4.5530   4.6607   4.8444
     4.9508   5.3584   5.5199   5.5363   5.6339   5.7948   5.9407   6.0462
     6.2715   6.3609   6.5171

          k = 0.3094 0.1691-0.4000 ( 44682 PWs)   bands (ev):

   -18.8753 -18.8257 -18.7746 -18.7045 -18.6369 -18.5581 -18.4957 -18.2450
   -18.2042 -18.1311 -18.0541 -17.9711 -17.9026 -17.5371 -17.5060 -16.6927
    -6.6359  -6.6030  -6.5522  -6.5013  -6.3800  -6.2889  -6.2687  -6.2102
    -6.0730  -6.0539  -5.9049  -5.8265  -5.6827  -5.5888  -5.4300  -5.3920
    -5.3221  -5.2953  -5.2118  -5.1623  -5.1428  -5.0963  -5.0366  -4.9924
    -4.9349  -4.8724  -4.7997  -4.7669  -4.7191  -4.4731  -4.4388  -4.3770
    -4.2851  -4.1250  -4.0801  -4.0310  -3.8247  -3.8019  -3.7562  -3.6899
    -3.6046  -3.5034  -3.4102  -3.3538  -3.1768  -3.0737  -2.7472  -2.7333
    -2.7151  -2.6645  -2.6240  -2.6083  -2.5292  -2.4768  -2.3861  -2.3554
    -2.3429  -2.3327  -2.3119  -2.2883  -2.2838  -2.2612  -2.2456  -2.2373
    -2.2234  -2.2119  -2.1967  -2.1703  -2.1693  -2.1508  -2.1088  -2.0865
    -2.0784  -2.0510  -2.0377  -2.0097  -1.9847  -1.9693  -1.9134  -1.9021
    -1.8953  -1.8386  -1.8172  -1.7841  -1.7649  -1.7511  -1.6930  -1.6546
    -1.6403  -1.6321  -1.5869  -1.5653  -1.5373  -1.5323  -1.4753  -1.4605
    -1.4486  -1.3978  -1.3910  -1.3833  -1.3487  -1.2998  -1.2767  -1.2283
    -1.1466  -1.1192  -1.0944  -1.0150  -0.9480  -0.7680  -0.6952  -0.2917
    -0.2480  -0.1826  -0.0626  -0.0358   0.0400   0.1337   0.1504   0.3159
     0.5343   0.5492   0.6309   0.7208   0.8081   0.8289   0.9117   1.1798
     2.7356   4.2669   4.4522   4.6587   4.7112   4.7283   4.8930   4.9288
     5.0663   5.5197   5.5906   5.6490   5.6873   5.8627   6.0900   6.1504
     6.5208   7.1636   7.2647

          k = 0.3615 0.0000-0.3454 ( 44687 PWs)   bands (ev):

   -18.8733 -18.8319 -18.7594 -18.7016 -18.6417 -18.5498 -18.4555 -18.3385
   -18.2172 -18.1049 -18.0271 -17.9666 -17.9084 -17.5606 -17.4636 -16.7238
    -6.6511  -6.5895  -6.4776  -6.4603  -6.4284  -6.3224  -6.2247  -6.1871
    -6.1568  -6.0464  -5.9032  -5.7971  -5.7817  -5.6593  -5.4256  -5.2765
    -5.2587  -5.2325  -5.2020  -5.1764  -5.1163  -5.0621  -5.0140  -4.9837
    -4.9235  -4.9091  -4.8605  -4.7982  -4.6251  -4.5440  -4.4382  -4.3914
    -4.2507  -4.1025  -4.0775  -4.0220  -3.9181  -3.8891  -3.8059  -3.7100
    -3.5695  -3.4440  -3.3336  -3.2821  -3.1602  -3.0761  -2.9518  -2.7607
    -2.7215  -2.6958  -2.6391  -2.6087  -2.5369  -2.4905  -2.3953  -2.3457
    -2.3276  -2.3221  -2.3036  -2.2867  -2.2661  -2.2547  -2.2410  -2.2340
    -2.2238  -2.2060  -2.1918  -2.1820  -2.1547  -2.1206  -2.1063  -2.0811
    -2.0562  -2.0343  -2.0186  -1.9754  -1.9479  -1.9441  -1.9191  -1.9059
    -1.8794  -1.8452  -1.8097  -1.7869  -1.7336  -1.7008  -1.6883  -1.6550
    -1.6390  -1.6066  -1.5943  -1.5598  -1.5518  -1.5089  -1.4892  -1.4701
    -1.4284  -1.4174  -1.4037  -1.3817  -1.3544  -1.3346  -1.2994  -1.2895
    -1.2413  -1.1419  -1.1310  -1.0330  -0.8937  -0.8016  -0.7086  -0.3945
    -0.2384  -0.1785  -0.1170  -0.0173   0.0458   0.1582   0.2603   0.3114
     0.3871   0.5041   0.6347   0.7681   0.8589   0.8788   0.9381   1.1236
     2.7897   4.3808   4.4425   4.5020   4.6543   4.8205   4.9037   5.0920
     5.2105   5.3573   5.5419   5.7122   5.7974   5.8671   6.0254   6.2245
     6.6032   7.0737   7.3422

          k = 0.2051 0.5073-0.5091 ( 44682 PWs)   bands (ev):

   -18.8527 -18.8121 -18.7600 -18.7132 -18.6405 -18.5747 -18.5246 -18.2440
   -18.2048 -18.1313 -18.0365 -17.9619 -17.9130 -17.5868 -17.4189 -16.7587
    -6.6209  -6.5874  -6.5327  -6.4508  -6.3115  -6.3083  -6.2702  -6.1557
    -6.0687  -6.0462  -6.0070  -5.8701  -5.6921  -5.6050  -5.5174  -5.3726
    -5.2743  -5.2273  -5.1730  -5.1562  -5.1068  -5.0822  -5.0590  -5.0056
    -4.9433  -4.9104  -4.8966  -4.7911  -4.6006  -4.4885  -4.4076  -4.3144
    -4.2002  -4.0956  -4.0531  -3.9820  -3.9660  -3.7932  -3.7755  -3.6555
    -3.5878  -3.5628  -3.4565  -3.3276  -3.2519  -2.9326  -2.8175  -2.7873
    -2.7212  -2.6891  -2.6243  -2.5894  -2.5206  -2.4695  -2.4032  -2.3621
    -2.3536  -2.3185  -2.2966  -2.2950  -2.2868  -2.2612  -2.2489  -2.2383
    -2.2312  -2.2232  -2.2056  -2.1869  -2.1523  -2.1230  -2.1006  -2.0825
    -2.0775  -2.0691  -2.0601  -2.0225  -1.9629  -1.9519  -1.9123  -1.9021
    -1.8721  -1.8394  -1.8169  -1.7742  -1.7539  -1.7510  -1.7011  -1.6822
    -1.6545  -1.6348  -1.6007  -1.5509  -1.5444  -1.5235  -1.5018  -1.4483
    -1.4384  -1.4137  -1.3800  -1.3732  -1.3389  -1.3092  -1.2711  -1.2330
    -1.2179  -1.2013  -1.1279  -1.0998  -0.9561  -0.7094  -0.6614  -0.5746
    -0.2066  -0.1338  -0.0280   0.0604   0.1131   0.2191   0.2759   0.3205
     0.4516   0.4866   0.5890   0.6996   0.7518   0.8474   0.9155   1.0318
     2.8459   4.2749   4.5731   4.6336   4.7068   4.7546   4.8585   5.0492
     5.2559   5.4757   5.6209   5.6537   5.7953   5.9311   5.9790   6.1433
     6.7004   7.0469   7.3778

     the Fermi energy is     0.3436 ev

!    total energy              =   -4074.99829010 Ry
     total all-electron energy =    -55366.624826 Ry
     estimated scf accuracy    <       0.00000002 Ry
     smearing contrib. (-TS)   =       0.00136547 Ry
     internal energy E=F+TS    =   -4074.99965557 Ry

     The total energy is F=E-TS. E is the sum of the following terms:
     one-electron contribution =  -47724.16549492 Ry
     hartree contribution      =   24092.24724688 Ry
     xc contribution           =    -830.82399244 Ry
     ewald contribution        =   21977.73206514 Ry
     one-center paw contrib.   =   -1589.98948023 Ry

     convergence has been achieved in  24 iterations

     negative rho (up, down):  9.516E-04 0.000E+00

     Forces acting on atoms (cartesian axes, Ry/au):

     atom    1 type  1   force =     0.00062621   -0.00150356   -0.00115503
     atom    2 type  1   force =    -0.00073626    0.00203361    0.00072892
     atom    3 type  1   force =     0.00020623    0.00045046   -0.00003344
     atom    4 type  1   force =    -0.00157582    0.00068832    0.00165852
     atom    5 type  1   force =     0.00077965    0.00025655   -0.00018276
     atom    6 type  1   force =     0.00055787    0.00047322    0.00030430
     atom    7 type  1   force =    -0.00009082    0.00003669    0.00014339
     atom    8 type  1   force =     0.00028861    0.00028959   -0.00007197
     atom    9 type  1   force =    -0.00055029   -0.00042754    0.00031013
     atom   10 type  1   force =    -0.00028415   -0.00036828    0.00010933
     atom   11 type  1   force =     0.00022936   -0.00094786   -0.00043683
     atom   12 type  1   force =    -0.00036612   -0.00064167    0.00013150
     atom   13 type  1   force =    -0.00120694   -0.00179376   -0.00151746
     atom   14 type  1   force =     0.00105606    0.00015827   -0.00102255
     atom   15 type  1   force =    -0.00035151   -0.00039480   -0.00125107
     atom   16 type  1   force =     0.00019176    0.00012099   -0.00144911
     atom   17 type  2   force =     0.00229760   -0.00234430    0.00170703
     atom   18 type  2   force =    -0.00053445    0.00176349    0.00058460
     atom   19 type  2   force =    -0.00034105    0.00187375    0.00091257
     atom   20 type  2   force =     0.00048673    0.00064883   -0.00133358
     atom   21 type  2   force =     0.00069737    0.00089072    0.00085217
     atom   22 type  2   force =    -0.00030596    0.00026632    0.00086329
     atom   23 type  2   force =    -0.00004974    0.00015503    0.00040476
     atom   24 type  2   force =     0.00106549    0.00059429   -0.00013909
     atom   25 type  2   force =    -0.00097538   -0.00070495    0.00018602
     atom   26 type  2   force =     0.00006026   -0.00022932   -0.00013028
     atom   27 type  2   force =     0.00022216   -0.00013829   -0.00065461
     atom   28 type  2   force =    -0.00048772   -0.00117742   -0.00029960
     atom   29 type  2   force =    -0.00006296   -0.00079363    0.00004539
     atom   30 type  2   force =    -0.00001293   -0.00095403    0.00035395
     atom   31 type  2   force =    -0.00157542    0.00081567   -0.00063224
     atom   32 type  2   force =     0.00074217    0.00090360    0.00101376

     Total force =     0.008525     Total SCF correction =     0.000514
     Energy error            =      1.4E-04 Ry
     Gradient error          =      2.3E-03 Ry/Bohr

     number of scf cycles    =  16
     number of bfgs steps    =  15

     energy             old  =   -4074.9981462667 Ry
     energy             new  =   -4074.9982901040 Ry

     CASE: energy            _new < energy            _old

     new trust radius        =       0.0161456555 bohr
     new conv_thr            =       0.0000000144 Ry


ATOMIC_POSITIONS (angstrom)
Cu               7.4321471181        2.5972899772       10.0501455782
Cu               8.8395619348        0.0995941281        8.8095810051
Cu              10.3803518628        2.5904075092       10.2199138536
Cu               5.9971396874        5.1480370007       11.5442121371
Cu              10.3400459048        2.5563537407       13.1605263784
Cu               8.9524332677        5.1342261312       11.6854608100
Cu              13.2788233534        2.5740280220       13.3114676858
Cu              11.8890095546        5.1470980184       11.8481333053
Cu              10.4971508090        7.7391051434       16.2970330856
Cu              11.8912290535        5.1559251361       14.8054787417
Cu              13.4038266238        7.7007369365       16.4455950709
Cu              14.8374181110        5.1603859663       14.9683284726
Cu              16.4278973967        7.7446146777       16.6286367447
Cu              14.8581017470        5.1108088810       17.9231605595
Cu              16.1058737364        7.7784449420       19.2387508091
Cu              15.0887376736       10.2891595638       17.9711573008
O                7.4060207157        3.9737910619        8.7575207973
O                7.4597431967        1.2131629070        8.8483522044
O                7.4486823985        3.8611028190       11.5494312349
O               10.3828079352        1.3846576537        8.7273646059
O               10.4137467315        3.8516979062       11.7036810969
O               10.2809308086        1.2676075637       11.6593019880
O               10.4197790126        3.8595427266       14.6467195239
O               10.4213299146        6.4311808265       11.8538062375
O               13.3608479450        3.8727794685       14.7996264664
O               10.4239954759        6.4444510261       14.8114266446
O               16.2703591249        3.8532600742       14.9675934448
O               13.3746838248        6.4461671879       14.9581348447
O               13.4367556411        8.9285918275       17.9158703762
O               13.4091838949        6.4234133134       17.9252873097
O               16.5371093368        9.1536954459       18.0033333430
O               16.4167382086        6.3384554176       18.0014883433



     Writing config-only to output data dir ./tmp/CuO_111_slab.save/ :
     XML data file
     NEW-OLD atomic charge density approx. for the potential

     negative rho (up, down):  9.534E-04 0.000E+00

     total cpu time spent up to now is    86113.8 secs

     Self-consistent Calculation

     iteration #  1     ecut=    60.00 Ry     beta= 0.30
     Davidson diagonalization with overlap
     ethr =  1.00E-06,  avg # of iterations =  3.5

     negative rho (up, down):  9.534E-04 0.000E+00
