MPI startup(): PMI server not found. Please set I_MPI_PMI_LIBRARY variable if it is not a singleton case.

     Program PWSCF v.7.3.1 starts on  9Jan2026 at 11:36:53 

     This program is part of the open-source Quantum ESPRESSO suite
     for quantum simulation of materials; please cite
         "P. Giannozzi et al., J. Phys.:Condens. Matter 21 395502 (2009);
         "P. Giannozzi et al., J. Phys.:Condens. Matter 29 465901 (2017);
         "P. Giannozzi et al., J. Chem. Phys. 152 154105 (2020);
          URL http://www.quantum-espresso.org", 
     in publications or presentations arising from this work. More details at
     http://www.quantum-espresso.org/quote

     Parallel version (MPI), running on     1 processors

     MPI processes distributed on     1 nodes
     157860 MiB available memory on the printing compute node when the environment starts
 
     Reading input from CuO_slab_scf.in

     Current dimensions of program PWSCF are:
     Max number of different atomic species (ntypx) = 10
     Max number of k-points (npk) =  40000
     Max angular momentum in pseudopotentials (lmaxx) =  4
     file Cu.pbe-dn-kjpaw_psl.1.0.0.UPF: wavefunction(s)  4S 3D renormalized
     file O.pbe-n-kjpaw_psl.0.1.UPF: wavefunction(s)  2P renormalized
 
     Subspace diagonalization in iterative solution of the eigenvalue problem:
     a serial algorithm will be used

 
     G-vector sticks info
     --------------------
     sticks:   dense  smooth     PW     G-vecs:    dense   smooth      PW
     Sum        4573    2281    645              1860957   657963   99181
 
     Using Slab Decomposition
 


     bravais-lattice index     =            0
     lattice parameter (alat)  =       7.6739  a.u.
     unit-cell volume          =    5703.8646 (a.u.)^3
     number of atoms/cell      =           32
     number of atomic types    =            2
     number of electrons       =       272.00
     number of Kohn-Sham states=          163
     kinetic-energy cutoff     =      90.0000  Ry
     charge density cutoff     =     720.0000  Ry
     scf convergence threshold =      1.0E-08
     mixing beta               =       0.3000
     number of iterations used =            8  plain     mixing
     Exchange-correlation= SLA  PW   PBX  PBC
                           (   1   4   3   4   0   0   0)
     Hubbard projectors: ortho-atomic
     Hubbard parameters of DFT+U (Dudarev formulation) in eV:
     U(Cu-3d) =  5.0000

     Internal variables: lda_plus_u = T, lda_plus_u_kind = 0

     celldm(1)=   7.673918  celldm(2)=   0.000000  celldm(3)=   0.000000
     celldm(4)=   0.000000  celldm(5)=   0.000000  celldm(6)=   0.000000

     crystal axes: (cart. coord. in units of alat)
               a(1) = (  -0.722969   0.000000   0.690881 )  
               a(2) = (   0.684632  -1.269632  -0.007284 )  
               a(3) = (   5.898761   3.808895   6.172731 )  

     reciprocal axes: (cart. coord. in units 2 pi/alat)
               b(1) = ( -0.618724 -0.338228  0.799967 )  
               b(2) = (  0.208489 -0.676457  0.218173 )  
               b(3) = (  0.069496  0.037058  0.072724 )  


     PseudoPot. # 1 for Cu read from file:
     ./SSSP/Cu.pbe-dn-kjpaw_psl.1.0.0.UPF
     MD5 check sum: cfffd1f38ee05704b3e17f46f1730a6f
     Pseudo is Projector augmented-wave + core cor, Zval = 11.0
     Generated using &quot;atomic&quot; code by A. Dal Corso  v.6.3
     Shape of augmentation charge: PSQ
     Using radial grid of 1199 points,  6 beta functions with: 
                l(1) =   0
                l(2) =   0
                l(3) =   1
                l(4) =   1
                l(5) =   2
                l(6) =   2
     Q(r) pseudized with 0 coefficients 


     PseudoPot. # 2 for O  read from file:
     ./SSSP/O.pbe-n-kjpaw_psl.0.1.UPF
     MD5 check sum: 0234752ac141de4415c5fc33072bef88
     Pseudo is Projector augmented-wave + core cor, Zval =  6.0
     Generated using "atomic" code by A. Dal Corso  v.5.0.99 svn rev. 10869
     Shape of augmentation charge: BESSEL
     Using radial grid of 1095 points,  4 beta functions with: 
                l(1) =   0
                l(2) =   0
                l(3) =   1
                l(4) =   1
     Q(r) pseudized with 0 coefficients 


     atomic species   valence    mass     pseudopotential
     Cu               11.00    63.54600     Cu( 1.00)
     O                 6.00    15.99900     O ( 1.00)

     Starting magnetic structure 
     atomic species   magnetization
     Cu              0.500
     O               0.000

     No symmetry found



   Cartesian axes

     site n.     atom                  positions (alat units)
         1        Cu     tau(   1) = (   1.8301894   0.6395908   2.4748797  )
         2        Cu     tau(   2) = (   2.1767697   0.0245254   2.1693868  )
         3        Cu     tau(   3) = (   2.5561940   0.6378959   2.5166857  )
         4        Cu     tau(   4) = (   1.4768144   1.2677202   2.8427982  )
         5        Cu     tau(   5) = (   2.5462686   0.6295101   3.2408207  )
         6        Cu     tau(   6) = (   2.2045646   1.2643192   2.8775812  )
         7        Cu     tau(   7) = (   3.2699517   0.6338624   3.2779904  )
         8        Cu     tau(   8) = (   2.9277057   1.2674889   2.9176398  )
         9        Cu     tau(   9) = (   2.5849561   1.9057788   4.0131952  )
        10        Cu     tau(  10) = (   2.9282522   1.2696626   3.6458953  )
        11        Cu     tau(  11) = (   3.3007341   1.8963305   4.0497791  )
        12        Cu     tau(  12) = (   3.6537605   1.2707611   3.6859976  )
        13        Cu     tau(  13) = (   4.0454210   1.9071355   4.0948537  )
        14        Cu     tau(  14) = (   3.6588539   1.2585526   4.4136342  )
        15        Cu     tau(  15) = (   3.9661216   1.9154663   4.7376024  )
        16        Cu     tau(  16) = (   3.7156487   2.5337376   4.4254535  )
        17        O      tau(  17) = (   1.8237557   0.9785584   2.1565668  )
        18        O      tau(  18) = (   1.8369850   0.2987451   2.1789343  )
        19        O      tau(  19) = (   1.8342613   0.9508086   2.8440835  )
        20        O      tau(  20) = (   2.5567988   0.3409763   2.1491408  )
        21        O      tau(  21) = (   2.5644176   0.9484926   2.8820680  )
        22        O      tau(  22) = (   2.5317113   0.3121523   2.8711395  )
        23        O      tau(  23) = (   2.5659031   0.9504244   3.6068004  )
        24        O      tau(  24) = (   2.5662850   1.5836983   2.9190368  )
        25        O      tau(  25) = (   3.2901505   0.9536840   3.6444542  )
        26        O      tau(  26) = (   2.5669414   1.5869662   3.6473600  )
        27        O      tau(  27) = (   4.0066267   0.9488773   3.6858166  )
        28        O      tau(  28) = (   3.2935576   1.5873888   3.6834874  )
        29        O      tau(  29) = (   3.3088430   2.1986936   4.4118390  )
        30        O      tau(  30) = (   3.3020534   1.5817856   4.4141579  )
        31        O      tau(  31) = (   4.0723148   2.2541261   4.4333770  )
        32        O      tau(  32) = (   4.0426730   1.5608644   4.4329226  )

     number of k points=    20  Methfessel-Paxton smearing, width (Ry)=  0.0200
                       cart. coord. in units 2pi/alat
        k(    1) = (   0.0000000   0.0000000   0.0000000), wk =   0.0277778
        k(    2) = (   0.0347482  -0.1127428   0.0363621), wk =   0.0555556
        k(    3) = (   0.0694965  -0.2254856   0.0727243), wk =   0.0555556
        k(    4) = (  -0.1042447   0.3382283  -0.1090864), wk =   0.0277778
        k(    5) = (  -0.1031207  -0.0563714   0.1333278), wk =   0.0555556
        k(    6) = (  -0.0683724  -0.1691142   0.1696900), wk =   0.0555556
        k(    7) = (  -0.0336242  -0.2818569   0.2060521), wk =   0.0555556
        k(    8) = (  -0.2073654   0.2818569   0.0242414), wk =   0.0555556
        k(    9) = (  -0.1726172   0.1691142   0.0606036), wk =   0.0555556
        k(   10) = (  -0.1378689   0.0563714   0.0969657), wk =   0.0555556
        k(   11) = (  -0.2062414  -0.1127428   0.2666557), wk =   0.0555556
        k(   12) = (  -0.1714931  -0.2254856   0.3030178), wk =   0.0555556
        k(   13) = (  -0.1367449  -0.3382283   0.3393800), wk =   0.0555556
        k(   14) = (  -0.3104861   0.2254855   0.1575693), wk =   0.0555556
        k(   15) = (  -0.2757379   0.1127428   0.1939314), wk =   0.0555556
        k(   16) = (  -0.2409896  -0.0000000   0.2302936), wk =   0.0555556
        k(   17) = (   0.3093620   0.1691142  -0.3999835), wk =   0.0277778
        k(   18) = (   0.3441103   0.0563714  -0.3636214), wk =   0.0555556
        k(   19) = (   0.3788585  -0.0563714  -0.3272593), wk =   0.0555556
        k(   20) = (   0.2051173   0.5073425  -0.5090700), wk =   0.0277778

     Dense  grid:  1860957 G-vectors     FFT dimensions: (  72,  96, 625)

     Smooth grid:   657963 G-vectors     FFT dimensions: (  48,  72, 450)

     Estimated max dynamical RAM per process >      20.16 GB
     Generating pointlists ...
     new r_m :   0.1802 (alat units)  1.3825 (a.u.) for type    1
     new r_m :   0.1802 (alat units)  1.3825 (a.u.) for type    2

     Initial potential from superposition of free atoms

     starting charge     271.9963, renormalised to     272.0000

     negative rho (up, down):  2.668E-04 2.172E-04

     STARTING HUBBARD OCCUPATIONS:

     =================== HUBBARD OCCUPATIONS ===================
     ------------------------ ATOM    1 ------------------------
     Tr[ns(  1)] (up, down, total) =   5.00000  4.50000  9.50000
     Atomic magnetic moment for atom   1 =   0.50000
     SPIN  1
     eigenvalues:
       1.000  1.000  1.000  1.000  1.000
     eigenvectors (columns):
       1.000  0.000  0.000  0.000  0.000
       0.000  1.000  0.000  0.000  0.000
       0.000  0.000  1.000  0.000  0.000
       0.000  0.000  0.000  1.000  0.000
       0.000  0.000  0.000  0.000  1.000
     occupation matrix ns (before diag.):
       1.000  0.000  0.000  0.000  0.000
       0.000  1.000  0.000  0.000  0.000
       0.000  0.000  1.000  0.000  0.000
       0.000  0.000  0.000  1.000  0.000
       0.000  0.000  0.000  0.000  1.000
     SPIN  2
     eigenvalues:
       0.900  0.900  0.900  0.900  0.900
     eigenvectors (columns):
       1.000  0.000  0.000  0.000  0.000
       0.000  1.000  0.000  0.000  0.000
       0.000  0.000  1.000  0.000  0.000
       0.000  0.000  0.000  1.000  0.000
       0.000  0.000  0.000  0.000  1.000
     occupation matrix ns (before diag.):
       0.900  0.000  0.000  0.000  0.000
       0.000  0.900  0.000  0.000  0.000
       0.000  0.000  0.900  0.000  0.000
       0.000  0.000  0.000  0.900  0.000
       0.000  0.000  0.000  0.000  0.900
     ------------------------ ATOM    2 ------------------------
     Tr[ns(  2)] (up, down, total) =   5.00000  4.50000  9.50000
     Atomic magnetic moment for atom   2 =   0.50000
     SPIN  1
     eigenvalues:
       1.000  1.000  1.000  1.000  1.000
     eigenvectors (columns):
       1.000  0.000  0.000  0.000  0.000
       0.000  1.000  0.000  0.000  0.000
       0.000  0.000  1.000  0.000  0.000
       0.000  0.000  0.000  1.000  0.000
       0.000  0.000  0.000  0.000  1.000
     occupation matrix ns (before diag.):
       1.000  0.000  0.000  0.000  0.000
       0.000  1.000  0.000  0.000  0.000
       0.000  0.000  1.000  0.000  0.000
       0.000  0.000  0.000  1.000  0.000
       0.000  0.000  0.000  0.000  1.000
     SPIN  2
     eigenvalues:
       0.900  0.900  0.900  0.900  0.900
     eigenvectors (columns):
       1.000  0.000  0.000  0.000  0.000
       0.000  1.000  0.000  0.000  0.000
       0.000  0.000  1.000  0.000  0.000
       0.000  0.000  0.000  1.000  0.000
       0.000  0.000  0.000  0.000  1.000
     occupation matrix ns (before diag.):
       0.900  0.000  0.000  0.000  0.000
       0.000  0.900  0.000  0.000  0.000
       0.000  0.000  0.900  0.000  0.000
       0.000  0.000  0.000  0.900  0.000
       0.000  0.000  0.000  0.000  0.900
     ------------------------ ATOM    3 ------------------------
     Tr[ns(  3)] (up, down, total) =   5.00000  4.50000  9.50000
     Atomic magnetic moment for atom   3 =   0.50000
     SPIN  1
     eigenvalues:
       1.000  1.000  1.000  1.000  1.000
     eigenvectors (columns):
       1.000  0.000  0.000  0.000  0.000
       0.000  1.000  0.000  0.000  0.000
       0.000  0.000  1.000  0.000  0.000
       0.000  0.000  0.000  1.000  0.000
       0.000  0.000  0.000  0.000  1.000
     occupation matrix ns (before diag.):
       1.000  0.000  0.000  0.000  0.000
       0.000  1.000  0.000  0.000  0.000
       0.000  0.000  1.000  0.000  0.000
       0.000  0.000  0.000  1.000  0.000
       0.000  0.000  0.000  0.000  1.000
     SPIN  2
     eigenvalues:
       0.900  0.900  0.900  0.900  0.900
     eigenvectors (columns):
       1.000  0.000  0.000  0.000  0.000
       0.000  1.000  0.000  0.000  0.000
       0.000  0.000  1.000  0.000  0.000
       0.000  0.000  0.000  1.000  0.000
       0.000  0.000  0.000  0.000  1.000
     occupation matrix ns (before diag.):
       0.900  0.000  0.000  0.000  0.000
       0.000  0.900  0.000  0.000  0.000
       0.000  0.000  0.900  0.000  0.000
       0.000  0.000  0.000  0.900  0.000
       0.000  0.000  0.000  0.000  0.900
     ------------------------ ATOM    4 ------------------------
     Tr[ns(  4)] (up, down, total) =   5.00000  4.50000  9.50000
     Atomic magnetic moment for atom   4 =   0.50000
     SPIN  1
     eigenvalues:
       1.000  1.000  1.000  1.000  1.000
     eigenvectors (columns):
       1.000  0.000  0.000  0.000  0.000
       0.000  1.000  0.000  0.000  0.000
       0.000  0.000  1.000  0.000  0.000
       0.000  0.000  0.000  1.000  0.000
       0.000  0.000  0.000  0.000  1.000
     occupation matrix ns (before diag.):
       1.000  0.000  0.000  0.000  0.000
       0.000  1.000  0.000  0.000  0.000
       0.000  0.000  1.000  0.000  0.000
       0.000  0.000  0.000  1.000  0.000
       0.000  0.000  0.000  0.000  1.000
     SPIN  2
     eigenvalues:
       0.900  0.900  0.900  0.900  0.900
     eigenvectors (columns):
       1.000  0.000  0.000  0.000  0.000
       0.000  1.000  0.000  0.000  0.000
       0.000  0.000  1.000  0.000  0.000
       0.000  0.000  0.000  1.000  0.000
       0.000  0.000  0.000  0.000  1.000
     occupation matrix ns (before diag.):
       0.900  0.000  0.000  0.000  0.000
       0.000  0.900  0.000  0.000  0.000
       0.000  0.000  0.900  0.000  0.000
       0.000  0.000  0.000  0.900  0.000
       0.000  0.000  0.000  0.000  0.900
     ------------------------ ATOM    5 ------------------------
     Tr[ns(  5)] (up, down, total) =   5.00000  4.50000  9.50000
     Atomic magnetic moment for atom   5 =   0.50000
     SPIN  1
     eigenvalues:
       1.000  1.000  1.000  1.000  1.000
     eigenvectors (columns):
       1.000  0.000  0.000  0.000  0.000
       0.000  1.000  0.000  0.000  0.000
       0.000  0.000  1.000  0.000  0.000
       0.000  0.000  0.000  1.000  0.000
       0.000  0.000  0.000  0.000  1.000
     occupation matrix ns (before diag.):
       1.000  0.000  0.000  0.000  0.000
       0.000  1.000  0.000  0.000  0.000
       0.000  0.000  1.000  0.000  0.000
       0.000  0.000  0.000  1.000  0.000
       0.000  0.000  0.000  0.000  1.000
     SPIN  2
     eigenvalues:
       0.900  0.900  0.900  0.900  0.900
     eigenvectors (columns):
       1.000  0.000  0.000  0.000  0.000
       0.000  1.000  0.000  0.000  0.000
       0.000  0.000  1.000  0.000  0.000
       0.000  0.000  0.000  1.000  0.000
       0.000  0.000  0.000  0.000  1.000
     occupation matrix ns (before diag.):
       0.900  0.000  0.000  0.000  0.000
       0.000  0.900  0.000  0.000  0.000
       0.000  0.000  0.900  0.000  0.000
       0.000  0.000  0.000  0.900  0.000
       0.000  0.000  0.000  0.000  0.900
     ------------------------ ATOM    6 ------------------------
     Tr[ns(  6)] (up, down, total) =   5.00000  4.50000  9.50000
     Atomic magnetic moment for atom   6 =   0.50000
     SPIN  1
     eigenvalues:
       1.000  1.000  1.000  1.000  1.000
     eigenvectors (columns):
       1.000  0.000  0.000  0.000  0.000
       0.000  1.000  0.000  0.000  0.000
       0.000  0.000  1.000  0.000  0.000
       0.000  0.000  0.000  1.000  0.000
       0.000  0.000  0.000  0.000  1.000
     occupation matrix ns (before diag.):
       1.000  0.000  0.000  0.000  0.000
       0.000  1.000  0.000  0.000  0.000
       0.000  0.000  1.000  0.000  0.000
       0.000  0.000  0.000  1.000  0.000
       0.000  0.000  0.000  0.000  1.000
     SPIN  2
     eigenvalues:
       0.900  0.900  0.900  0.900  0.900
     eigenvectors (columns):
       1.000  0.000  0.000  0.000  0.000
       0.000  1.000  0.000  0.000  0.000
       0.000  0.000  1.000  0.000  0.000
       0.000  0.000  0.000  1.000  0.000
       0.000  0.000  0.000  0.000  1.000
     occupation matrix ns (before diag.):
       0.900  0.000  0.000  0.000  0.000
       0.000  0.900  0.000  0.000  0.000
       0.000  0.000  0.900  0.000  0.000
       0.000  0.000  0.000  0.900  0.000
       0.000  0.000  0.000  0.000  0.900
     ------------------------ ATOM    7 ------------------------
     Tr[ns(  7)] (up, down, total) =   5.00000  4.50000  9.50000
     Atomic magnetic moment for atom   7 =   0.50000
     SPIN  1
     eigenvalues:
       1.000  1.000  1.000  1.000  1.000
     eigenvectors (columns):
       1.000  0.000  0.000  0.000  0.000
       0.000  1.000  0.000  0.000  0.000
       0.000  0.000  1.000  0.000  0.000
       0.000  0.000  0.000  1.000  0.000
       0.000  0.000  0.000  0.000  1.000
     occupation matrix ns (before diag.):
       1.000  0.000  0.000  0.000  0.000
       0.000  1.000  0.000  0.000  0.000
       0.000  0.000  1.000  0.000  0.000
       0.000  0.000  0.000  1.000  0.000
       0.000  0.000  0.000  0.000  1.000
     SPIN  2
     eigenvalues:
       0.900  0.900  0.900  0.900  0.900
     eigenvectors (columns):
       1.000  0.000  0.000  0.000  0.000
       0.000  1.000  0.000  0.000  0.000
       0.000  0.000  1.000  0.000  0.000
       0.000  0.000  0.000  1.000  0.000
       0.000  0.000  0.000  0.000  1.000
     occupation matrix ns (before diag.):
       0.900  0.000  0.000  0.000  0.000
       0.000  0.900  0.000  0.000  0.000
       0.000  0.000  0.900  0.000  0.000
       0.000  0.000  0.000  0.900  0.000
       0.000  0.000  0.000  0.000  0.900
     ------------------------ ATOM    8 ------------------------
     Tr[ns(  8)] (up, down, total) =   5.00000  4.50000  9.50000
     Atomic magnetic moment for atom   8 =   0.50000
     SPIN  1
     eigenvalues:
       1.000  1.000  1.000  1.000  1.000
     eigenvectors (columns):
       1.000  0.000  0.000  0.000  0.000
       0.000  1.000  0.000  0.000  0.000
       0.000  0.000  1.000  0.000  0.000
       0.000  0.000  0.000  1.000  0.000
       0.000  0.000  0.000  0.000  1.000
     occupation matrix ns (before diag.):
       1.000  0.000  0.000  0.000  0.000
       0.000  1.000  0.000  0.000  0.000
       0.000  0.000  1.000  0.000  0.000
       0.000  0.000  0.000  1.000  0.000
       0.000  0.000  0.000  0.000  1.000
     SPIN  2
     eigenvalues:
       0.900  0.900  0.900  0.900  0.900
     eigenvectors (columns):
       1.000  0.000  0.000  0.000  0.000
       0.000  1.000  0.000  0.000  0.000
       0.000  0.000  1.000  0.000  0.000
       0.000  0.000  0.000  1.000  0.000
       0.000  0.000  0.000  0.000  1.000
     occupation matrix ns (before diag.):
       0.900  0.000  0.000  0.000  0.000
       0.000  0.900  0.000  0.000  0.000
       0.000  0.000  0.900  0.000  0.000
       0.000  0.000  0.000  0.900  0.000
       0.000  0.000  0.000  0.000  0.900
     ------------------------ ATOM    9 ------------------------
     Tr[ns(  9)] (up, down, total) =   5.00000  4.50000  9.50000
     Atomic magnetic moment for atom   9 =   0.50000
     SPIN  1
     eigenvalues:
       1.000  1.000  1.000  1.000  1.000
     eigenvectors (columns):
       1.000  0.000  0.000  0.000  0.000
       0.000  1.000  0.000  0.000  0.000
       0.000  0.000  1.000  0.000  0.000
       0.000  0.000  0.000  1.000  0.000
       0.000  0.000  0.000  0.000  1.000
     occupation matrix ns (before diag.):
       1.000  0.000  0.000  0.000  0.000
       0.000  1.000  0.000  0.000  0.000
       0.000  0.000  1.000  0.000  0.000
       0.000  0.000  0.000  1.000  0.000
       0.000  0.000  0.000  0.000  1.000
     SPIN  2
     eigenvalues:
       0.900  0.900  0.900  0.900  0.900
     eigenvectors (columns):
       1.000  0.000  0.000  0.000  0.000
       0.000  1.000  0.000  0.000  0.000
       0.000  0.000  1.000  0.000  0.000
       0.000  0.000  0.000  1.000  0.000
       0.000  0.000  0.000  0.000  1.000
     occupation matrix ns (before diag.):
       0.900  0.000  0.000  0.000  0.000
       0.000  0.900  0.000  0.000  0.000
       0.000  0.000  0.900  0.000  0.000
       0.000  0.000  0.000  0.900  0.000
       0.000  0.000  0.000  0.000  0.900
     ------------------------ ATOM   10 ------------------------
     Tr[ns( 10)] (up, down, total) =   5.00000  4.50000  9.50000
     Atomic magnetic moment for atom  10 =   0.50000
     SPIN  1
     eigenvalues:
       1.000  1.000  1.000  1.000  1.000
     eigenvectors (columns):
       1.000  0.000  0.000  0.000  0.000
       0.000  1.000  0.000  0.000  0.000
       0.000  0.000  1.000  0.000  0.000
       0.000  0.000  0.000  1.000  0.000
       0.000  0.000  0.000  0.000  1.000
     occupation matrix ns (before diag.):
       1.000  0.000  0.000  0.000  0.000
       0.000  1.000  0.000  0.000  0.000
       0.000  0.000  1.000  0.000  0.000
       0.000  0.000  0.000  1.000  0.000
       0.000  0.000  0.000  0.000  1.000
     SPIN  2
     eigenvalues:
       0.900  0.900  0.900  0.900  0.900
     eigenvectors (columns):
       1.000  0.000  0.000  0.000  0.000
       0.000  1.000  0.000  0.000  0.000
       0.000  0.000  1.000  0.000  0.000
       0.000  0.000  0.000  1.000  0.000
       0.000  0.000  0.000  0.000  1.000
     occupation matrix ns (before diag.):
       0.900  0.000  0.000  0.000  0.000
       0.000  0.900  0.000  0.000  0.000
       0.000  0.000  0.900  0.000  0.000
       0.000  0.000  0.000  0.900  0.000
       0.000  0.000  0.000  0.000  0.900
     ------------------------ ATOM   11 ------------------------
     Tr[ns( 11)] (up, down, total) =   5.00000  4.50000  9.50000
     Atomic magnetic moment for atom  11 =   0.50000
     SPIN  1
     eigenvalues:
       1.000  1.000  1.000  1.000  1.000
     eigenvectors (columns):
       1.000  0.000  0.000  0.000  0.000
       0.000  1.000  0.000  0.000  0.000
       0.000  0.000  1.000  0.000  0.000
       0.000  0.000  0.000  1.000  0.000
       0.000  0.000  0.000  0.000  1.000
     occupation matrix ns (before diag.):
       1.000  0.000  0.000  0.000  0.000
       0.000  1.000  0.000  0.000  0.000
       0.000  0.000  1.000  0.000  0.000
       0.000  0.000  0.000  1.000  0.000
       0.000  0.000  0.000  0.000  1.000
     SPIN  2
     eigenvalues:
       0.900  0.900  0.900  0.900  0.900
     eigenvectors (columns):
       1.000  0.000  0.000  0.000  0.000
       0.000  1.000  0.000  0.000  0.000
       0.000  0.000  1.000  0.000  0.000
       0.000  0.000  0.000  1.000  0.000
       0.000  0.000  0.000  0.000  1.000
     occupation matrix ns (before diag.):
       0.900  0.000  0.000  0.000  0.000
       0.000  0.900  0.000  0.000  0.000
       0.000  0.000  0.900  0.000  0.000
       0.000  0.000  0.000  0.900  0.000
       0.000  0.000  0.000  0.000  0.900
     ------------------------ ATOM   12 ------------------------
     Tr[ns( 12)] (up, down, total) =   5.00000  4.50000  9.50000
     Atomic magnetic moment for atom  12 =   0.50000
     SPIN  1
     eigenvalues:
       1.000  1.000  1.000  1.000  1.000
     eigenvectors (columns):
       1.000  0.000  0.000  0.000  0.000
       0.000  1.000  0.000  0.000  0.000
       0.000  0.000  1.000  0.000  0.000
       0.000  0.000  0.000  1.000  0.000
       0.000  0.000  0.000  0.000  1.000
     occupation matrix ns (before diag.):
       1.000  0.000  0.000  0.000  0.000
       0.000  1.000  0.000  0.000  0.000
       0.000  0.000  1.000  0.000  0.000
       0.000  0.000  0.000  1.000  0.000
       0.000  0.000  0.000  0.000  1.000
     SPIN  2
     eigenvalues:
       0.900  0.900  0.900  0.900  0.900
     eigenvectors (columns):
       1.000  0.000  0.000  0.000  0.000
       0.000  1.000  0.000  0.000  0.000
       0.000  0.000  1.000  0.000  0.000
       0.000  0.000  0.000  1.000  0.000
       0.000  0.000  0.000  0.000  1.000
     occupation matrix ns (before diag.):
       0.900  0.000  0.000  0.000  0.000
       0.000  0.900  0.000  0.000  0.000
       0.000  0.000  0.900  0.000  0.000
       0.000  0.000  0.000  0.900  0.000
       0.000  0.000  0.000  0.000  0.900
     ------------------------ ATOM   13 ------------------------
     Tr[ns( 13)] (up, down, total) =   5.00000  4.50000  9.50000
     Atomic magnetic moment for atom  13 =   0.50000
     SPIN  1
     eigenvalues:
       1.000  1.000  1.000  1.000  1.000
     eigenvectors (columns):
       1.000  0.000  0.000  0.000  0.000
       0.000  1.000  0.000  0.000  0.000
       0.000  0.000  1.000  0.000  0.000
       0.000  0.000  0.000  1.000  0.000
       0.000  0.000  0.000  0.000  1.000
     occupation matrix ns (before diag.):
       1.000  0.000  0.000  0.000  0.000
       0.000  1.000  0.000  0.000  0.000
       0.000  0.000  1.000  0.000  0.000
       0.000  0.000  0.000  1.000  0.000
       0.000  0.000  0.000  0.000  1.000
     SPIN  2
     eigenvalues:
       0.900  0.900  0.900  0.900  0.900
     eigenvectors (columns):
       1.000  0.000  0.000  0.000  0.000
       0.000  1.000  0.000  0.000  0.000
       0.000  0.000  1.000  0.000  0.000
       0.000  0.000  0.000  1.000  0.000
       0.000  0.000  0.000  0.000  1.000
     occupation matrix ns (before diag.):
       0.900  0.000  0.000  0.000  0.000
       0.000  0.900  0.000  0.000  0.000
       0.000  0.000  0.900  0.000  0.000
       0.000  0.000  0.000  0.900  0.000
       0.000  0.000  0.000  0.000  0.900
     ------------------------ ATOM   14 ------------------------
     Tr[ns( 14)] (up, down, total) =   5.00000  4.50000  9.50000
     Atomic magnetic moment for atom  14 =   0.50000
     SPIN  1
     eigenvalues:
       1.000  1.000  1.000  1.000  1.000
     eigenvectors (columns):
       1.000  0.000  0.000  0.000  0.000
       0.000  1.000  0.000  0.000  0.000
       0.000  0.000  1.000  0.000  0.000
       0.000  0.000  0.000  1.000  0.000
       0.000  0.000  0.000  0.000  1.000
     occupation matrix ns (before diag.):
       1.000  0.000  0.000  0.000  0.000
       0.000  1.000  0.000  0.000  0.000
       0.000  0.000  1.000  0.000  0.000
       0.000  0.000  0.000  1.000  0.000
       0.000  0.000  0.000  0.000  1.000
     SPIN  2
     eigenvalues:
       0.900  0.900  0.900  0.900  0.900
     eigenvectors (columns):
       1.000  0.000  0.000  0.000  0.000
       0.000  1.000  0.000  0.000  0.000
       0.000  0.000  1.000  0.000  0.000
       0.000  0.000  0.000  1.000  0.000
       0.000  0.000  0.000  0.000  1.000
     occupation matrix ns (before diag.):
       0.900  0.000  0.000  0.000  0.000
       0.000  0.900  0.000  0.000  0.000
       0.000  0.000  0.900  0.000  0.000
       0.000  0.000  0.000  0.900  0.000
       0.000  0.000  0.000  0.000  0.900
     ------------------------ ATOM   15 ------------------------
     Tr[ns( 15)] (up, down, total) =   5.00000  4.50000  9.50000
     Atomic magnetic moment for atom  15 =   0.50000
     SPIN  1
     eigenvalues:
       1.000  1.000  1.000  1.000  1.000
     eigenvectors (columns):
       1.000  0.000  0.000  0.000  0.000
       0.000  1.000  0.000  0.000  0.000
       0.000  0.000  1.000  0.000  0.000
       0.000  0.000  0.000  1.000  0.000
       0.000  0.000  0.000  0.000  1.000
     occupation matrix ns (before diag.):
       1.000  0.000  0.000  0.000  0.000
       0.000  1.000  0.000  0.000  0.000
       0.000  0.000  1.000  0.000  0.000
       0.000  0.000  0.000  1.000  0.000
       0.000  0.000  0.000  0.000  1.000
     SPIN  2
     eigenvalues:
       0.900  0.900  0.900  0.900  0.900
     eigenvectors (columns):
       1.000  0.000  0.000  0.000  0.000
       0.000  1.000  0.000  0.000  0.000
       0.000  0.000  1.000  0.000  0.000
       0.000  0.000  0.000  1.000  0.000
       0.000  0.000  0.000  0.000  1.000
     occupation matrix ns (before diag.):
       0.900  0.000  0.000  0.000  0.000
       0.000  0.900  0.000  0.000  0.000
       0.000  0.000  0.900  0.000  0.000
       0.000  0.000  0.000  0.900  0.000
       0.000  0.000  0.000  0.000  0.900
     ------------------------ ATOM   16 ------------------------
     Tr[ns( 16)] (up, down, total) =   5.00000  4.50000  9.50000
     Atomic magnetic moment for atom  16 =   0.50000
     SPIN  1
     eigenvalues:
       1.000  1.000  1.000  1.000  1.000
     eigenvectors (columns):
       1.000  0.000  0.000  0.000  0.000
       0.000  1.000  0.000  0.000  0.000
       0.000  0.000  1.000  0.000  0.000
       0.000  0.000  0.000  1.000  0.000
       0.000  0.000  0.000  0.000  1.000
     occupation matrix ns (before diag.):
       1.000  0.000  0.000  0.000  0.000
       0.000  1.000  0.000  0.000  0.000
       0.000  0.000  1.000  0.000  0.000
       0.000  0.000  0.000  1.000  0.000
       0.000  0.000  0.000  0.000  1.000
     SPIN  2
     eigenvalues:
       0.900  0.900  0.900  0.900  0.900
     eigenvectors (columns):
       1.000  0.000  0.000  0.000  0.000
       0.000  1.000  0.000  0.000  0.000
       0.000  0.000  1.000  0.000  0.000
       0.000  0.000  0.000  1.000  0.000
       0.000  0.000  0.000  0.000  1.000
     occupation matrix ns (before diag.):
       0.900  0.000  0.000  0.000  0.000
       0.000  0.900  0.000  0.000  0.000
       0.000  0.000  0.900  0.000  0.000
       0.000  0.000  0.000  0.900  0.000
       0.000  0.000  0.000  0.000  0.900

     Number of occupied Hubbard levels =  152.0000

     Atomic wfc used for Hubbard projectors are orthogonalized

     Starting wfcs are  208 randomized atomic wfcs
     Checking if some PAW data can be deallocated... 

     total cpu time spent up to now is      826.8 secs

     Self-consistent Calculation

     iteration #  1     ecut=    90.00 Ry     beta= 0.30
     Davidson diagonalization with overlap
     ethr =  1.00E-02,  avg # of iterations =  2.8

     =================== HUBBARD OCCUPATIONS ===================
     ------------------------ ATOM    1 ------------------------
     Tr[ns(  1)] (up, down, total) =   4.96948  4.08206  9.05153
     Atomic magnetic moment for atom   1 =   0.88742
     SPIN  1
     eigenvalues:
       0.979  0.994  0.999  0.999  0.999
     eigenvectors (columns):
       0.522  0.043 -0.800 -0.285  0.064
       0.005  0.050  0.073  0.035  0.995
      -0.044  0.994 -0.010  0.087 -0.052
      -0.851 -0.021 -0.478 -0.212  0.048
      -0.030 -0.086 -0.356  0.930 -0.003
     occupation matrix ns (before diag.):
       0.993 -0.000  0.000  0.009  0.000
      -0.000  0.999 -0.000  0.000  0.000
       0.000 -0.000  0.994 -0.001  0.000
       0.009  0.000 -0.001  0.984 -0.001
       0.000  0.000  0.000 -0.001  0.999
     SPIN  2
     eigenvalues:
       0.297  0.909  0.947  0.955  0.974
     eigenvectors (columns):
      -0.016 -0.379  0.244 -0.049  0.891
       0.003 -0.210 -0.954  0.116  0.178
      -0.999 -0.017 -0.006 -0.014 -0.025
      -0.027  0.896 -0.105  0.117  0.415
      -0.012 -0.101  0.137  0.985 -0.026
     occupation matrix ns (before diag.):
       0.963  0.001 -0.011  0.023 -0.003
       0.001  0.946  0.002  0.009 -0.000
      -0.011  0.002  0.297 -0.017 -0.008
       0.023  0.009 -0.017  0.921  0.004
      -0.003 -0.000 -0.008  0.004  0.954
     ------------------------ ATOM    2 ------------------------
     Tr[ns(  2)] (up, down, total) =   4.95334  4.16706  9.12040
     Atomic magnetic moment for atom   2 =   0.78628
     SPIN  1
     eigenvalues:
       0.960  0.996  0.999  0.999  0.999
     eigenvectors (columns):
       0.683  0.712  0.078  0.045  0.135
      -0.046 -0.106  0.062 -0.423  0.897
       0.042 -0.067  0.891 -0.375 -0.245
      -0.150 -0.021  0.443  0.814  0.343
       0.712 -0.690 -0.029  0.123  0.015
     occupation matrix ns (before diag.):
       0.980  0.001 -0.001  0.004 -0.017
       0.001  0.999  0.000 -0.000  0.001
      -0.001  0.000  0.999  0.000 -0.001
       0.004 -0.000  0.000  0.998  0.004
      -0.017  0.001 -0.001  0.004  0.978
     SPIN  2
     eigenvalues:
       0.309  0.926  0.967  0.977  0.988
     eigenvectors (columns):
       0.259 -0.930 -0.091  0.241  0.045
      -0.016  0.068  0.650  0.610 -0.448
       0.037 -0.045 -0.414 -0.203 -0.885
       0.033  0.264 -0.627  0.723  0.115
       0.964  0.243  0.073 -0.072  0.010
     occupation matrix ns (before diag.):
       0.888  0.006 -0.009  0.006 -0.155
       0.006  0.975  0.007  0.003  0.009
      -0.009  0.007  0.983 -0.004 -0.023
       0.006  0.003 -0.004  0.969 -0.024
      -0.155  0.009 -0.023 -0.024  0.353
     ------------------------ ATOM    3 ------------------------
     Tr[ns(  3)] (up, down, total) =   4.96779  4.06618  9.03397
     Atomic magnetic moment for atom   3 =   0.90161
     SPIN  1
     eigenvalues:
       0.976  0.995  0.998  0.999  0.999
     eigenvectors (columns):
      -0.652  0.002 -0.009  0.738 -0.173
      -0.041  0.060  0.044 -0.261 -0.962
       0.047  0.997  0.009  0.050  0.047
       0.755 -0.057  0.039  0.620 -0.202
      -0.034 -0.009  0.998 -0.007  0.049
     occupation matrix ns (before diag.):
       0.989 -0.001  0.001  0.011 -0.001
      -0.001  0.999 -0.000  0.001 -0.000
       0.001 -0.000  0.995 -0.001  0.000
       0.011  0.001 -0.001  0.986  0.001
      -0.001 -0.000  0.000  0.001  0.998
     SPIN  2
     eigenvalues:
       0.273  0.879  0.959  0.974  0.981
     eigenvectors (columns):
      -0.054  0.557  0.023  0.035  0.828
       0.015  0.005  0.977  0.211 -0.039
       0.998  0.021 -0.012 -0.008  0.052
      -0.011 -0.828  0.005  0.098  0.552
       0.008  0.063 -0.213  0.972 -0.077
     occupation matrix ns (before diag.):
       0.947 -0.000  0.037  0.047 -0.003
      -0.000  0.960 -0.010  0.000  0.003
       0.037 -0.010  0.275  0.009 -0.005
       0.047  0.000  0.009  0.911  0.005
      -0.003  0.003 -0.005  0.005  0.973
     ------------------------ ATOM    4 ------------------------
     Tr[ns(  4)] (up, down, total) =   4.96747  4.03482  9.00229
     Atomic magnetic moment for atom   4 =   0.93265
     SPIN  1
     eigenvalues:
       0.976  0.995  0.999  0.999  0.999
     eigenvectors (columns):
      -0.987 -0.037 -0.074  0.135 -0.017
      -0.035 -0.048 -0.017 -0.155  0.986
      -0.040 -0.053  0.969  0.231  0.049
       0.142  0.068 -0.225  0.949  0.154
      -0.050  0.994  0.063 -0.055  0.040
     occupation matrix ns (before diag.):
       0.976 -0.001 -0.001  0.003 -0.001
      -0.001  0.999 -0.000  0.000  0.000
      -0.001 -0.000  0.999  0.000  0.000
       0.003  0.000  0.000  0.998 -0.000
      -0.001  0.000  0.000 -0.000  0.995
     SPIN  2
     eigenvalues:
       0.274  0.829  0.970  0.978  0.984
     eigenvectors (columns):
       0.022  0.999 -0.025 -0.024 -0.032
      -0.016 -0.011 -0.945  0.251  0.207
      -0.024  0.043  0.321  0.822  0.469
       0.077  0.015  0.051 -0.507  0.857
       0.996 -0.022 -0.011  0.063 -0.050
     occupation matrix ns (before diag.):
       0.829  0.002 -0.006 -0.004 -0.012
       0.002  0.971  0.003  0.002  0.011
      -0.006  0.003  0.978  0.003  0.017
      -0.004  0.002  0.003  0.978 -0.054
      -0.012  0.011  0.017 -0.054  0.279
     ------------------------ ATOM    5 ------------------------
     Tr[ns(  5)] (up, down, total) =   4.96905  4.05633  9.02538
     Atomic magnetic moment for atom   5 =   0.91271
     SPIN  1
     eigenvalues:
       0.977  0.995  0.998  0.999  0.999
     eigenvectors (columns):
       0.628  0.041  0.093  0.715  0.291
       0.020 -0.060 -0.047 -0.384  0.920
       0.076 -0.995  0.010  0.013 -0.061
      -0.771 -0.066  0.173  0.555  0.253
       0.076  0.015  0.979 -0.184 -0.028
     occupation matrix ns (before diag.):
       0.990 -0.000 -0.001  0.010 -0.001
      -0.000  0.999 -0.000  0.000 -0.000
      -0.001 -0.000  0.995  0.001 -0.000
       0.010  0.000  0.001  0.986  0.001
      -0.001 -0.000 -0.000  0.001  0.998
     SPIN  2
     eigenvalues:
       0.263  0.872  0.964  0.975  0.982
     eigenvectors (columns):
      -0.013  0.520  0.052  0.079 -0.849
       0.065  0.036 -0.987 -0.132 -0.051
       0.998 -0.010  0.065  0.004 -0.017
      -0.016 -0.851 -0.020  0.112 -0.512
       0.008  0.060 -0.134  0.982  0.120
     occupation matrix ns (before diag.):
       0.952 -0.000  0.010  0.048 -0.004
      -0.000  0.961 -0.045  0.004 -0.002
       0.010 -0.045  0.266  0.011 -0.005
       0.048  0.004  0.011  0.902  0.005
      -0.004 -0.002 -0.005  0.005  0.974
     ------------------------ ATOM    6 ------------------------
     Tr[ns(  6)] (up, down, total) =   4.96911  4.06719  9.03630
     Atomic magnetic moment for atom   6 =   0.90191
     SPIN  1
     eigenvalues:
       0.977  0.996  0.998  0.999  0.999
     eigenvectors (columns):
      -0.978 -0.067 -0.106 -0.168 -0.011
      -0.078 -0.073  0.035  0.403  0.908
      -0.065 -0.090  0.972 -0.205  0.040
       0.167 -0.004 -0.191 -0.876  0.410
      -0.077  0.991  0.083 -0.004  0.072
     occupation matrix ns (before diag.):
       0.978 -0.002 -0.001  0.004 -0.001
      -0.002  0.999 -0.000  0.000  0.000
      -0.001 -0.000  0.998  0.000  0.000
       0.004  0.000  0.000  0.998  0.000
      -0.001  0.000  0.000  0.000  0.995
     SPIN  2
     eigenvalues:
       0.266  0.879  0.963  0.977  0.983
     eigenvectors (columns):
       0.029 -0.996 -0.030 -0.073  0.037
      -0.064 -0.042  0.981  0.168  0.051
      -0.049 -0.066 -0.178  0.978  0.072
      -0.012  0.043 -0.037 -0.078  0.995
       0.996  0.023  0.055  0.061  0.018
     occupation matrix ns (before diag.):
       0.879 -0.002 -0.005  0.005 -0.018
      -0.002  0.960  0.000  0.000  0.045
      -0.005  0.000  0.974  0.000  0.035
       0.005  0.000  0.000  0.982  0.008
      -0.018  0.045  0.035  0.008  0.271
     ------------------------ ATOM    7 ------------------------
     Tr[ns(  7)] (up, down, total) =   4.96929  4.06213  9.03142
     Atomic magnetic moment for atom   7 =   0.90717
     SPIN  1
     eigenvalues:
       0.978  0.995  0.998  0.999  0.999
     eigenvectors (columns):
       0.632  0.030  0.128  0.695  0.317
       0.020 -0.071 -0.048 -0.419  0.904
       0.064 -0.995  0.019  0.015 -0.072
      -0.768 -0.057  0.202  0.539  0.274
       0.076  0.024  0.970 -0.225 -0.053
     occupation matrix ns (before diag.):
       0.990 -0.000 -0.001  0.010 -0.001
      -0.000  0.999 -0.000  0.000 -0.000
      -0.001 -0.000  0.995  0.001 -0.000
       0.010  0.000  0.001  0.986  0.001
      -0.001 -0.000 -0.000  0.001  0.998
     SPIN  2
     eigenvalues:
       0.266  0.876  0.963  0.975  0.982
     eigenvectors (columns):
      -0.014  0.525 -0.035 -0.015  0.850
      -0.067  0.049  0.986 -0.146  0.006
      -0.997 -0.028 -0.064  0.013 -0.002
       0.020 -0.848  0.046  0.036  0.527
       0.002  0.046  0.144  0.988 -0.005
     occupation matrix ns (before diag.):
       0.952 -0.003 -0.009  0.047 -0.002
      -0.003  0.960 -0.046  0.005 -0.002
      -0.009 -0.046  0.270  0.012  0.002
       0.047  0.005  0.012  0.905  0.004
      -0.002 -0.002  0.002  0.004  0.975
     ------------------------ ATOM    8 ------------------------
     Tr[ns(  8)] (up, down, total) =   4.96916  4.06832  9.03748
     Atomic magnetic moment for atom   8 =   0.90083
     SPIN  1
     eigenvalues:
       0.977  0.995  0.998  0.999  0.999
     eigenvectors (columns):
       0.981 -0.047 -0.106  0.154 -0.011
       0.074 -0.080  0.034 -0.404  0.907
       0.069 -0.063  0.972  0.209  0.046
      -0.155 -0.010 -0.198  0.877  0.410
       0.055  0.994  0.058 -0.004  0.079
     occupation matrix ns (before diag.):
       0.978 -0.002 -0.001  0.003 -0.001
      -0.002  0.999 -0.000  0.000  0.000
      -0.001 -0.000  0.998  0.000  0.000
       0.003  0.000  0.000  0.998  0.000
      -0.001  0.000  0.000  0.000  0.995
     SPIN  2
     eigenvalues:
       0.265  0.886  0.962  0.974  0.982
     eigenvectors (columns):
       0.026 -0.995 -0.039  0.070 -0.051
      -0.063 -0.048  0.992 -0.094  0.014
      -0.037 -0.067 -0.100 -0.992  0.006
      -0.011  0.049  0.014 -0.011 -0.999
       0.997  0.021  0.060 -0.045 -0.009
     occupation matrix ns (before diag.):
       0.886 -0.003 -0.005  0.005 -0.017
      -0.003  0.959 -0.001 -0.001  0.044
      -0.005 -0.001  0.972 -0.000  0.026
       0.005 -0.001 -0.000  0.982  0.008
      -0.017  0.044  0.026  0.008  0.269
     ------------------------ ATOM    9 ------------------------
     Tr[ns(  9)] (up, down, total) =   4.96869  4.05928  9.02797
     Atomic magnetic moment for atom   9 =   0.90941
     SPIN  1
     eigenvalues:
       0.977  0.995  0.998  0.999  0.999
     eigenvectors (columns):
       0.635  0.030  0.094  0.716  0.272
       0.028 -0.059 -0.046 -0.369  0.926
       0.042 -0.997  0.019  0.023 -0.054
      -0.767 -0.030  0.168  0.563  0.254
       0.071  0.019  0.980 -0.183 -0.025
     occupation matrix ns (before diag.):
       0.990 -0.000 -0.000  0.011 -0.001
      -0.000  0.999 -0.000  0.001 -0.000
      -0.000 -0.000  0.995  0.001 -0.000
       0.011  0.001  0.001  0.986  0.001
      -0.001 -0.000 -0.000  0.001  0.998
     SPIN  2
     eigenvalues:
       0.263  0.877  0.962  0.974  0.983
     eigenvectors (columns):
       0.001 -0.547  0.046  0.047 -0.835
      -0.065 -0.008 -0.997 -0.005 -0.051
      -0.998  0.014  0.065 -0.004 -0.007
       0.016  0.835  0.019  0.109 -0.539
      -0.006 -0.066 -0.009  0.993  0.099
     occupation matrix ns (before diag.):
       0.951  0.001  0.002  0.048 -0.004
       0.001  0.959 -0.045  0.002 -0.000
       0.002 -0.045  0.267  0.010 -0.004
       0.048  0.002  0.010  0.909  0.005
      -0.004 -0.000 -0.004  0.005  0.973
     ------------------------ ATOM   10 ------------------------
     Tr[ns( 10)] (up, down, total) =   4.96941  4.06950  9.03891
     Atomic magnetic moment for atom  10 =   0.89991
     SPIN  1
     eigenvalues:
       0.978  0.995  0.998  0.999  0.999
     eigenvectors (columns):
      -0.980 -0.046  0.112  0.159 -0.007
      -0.071 -0.082 -0.050 -0.392  0.912
      -0.074 -0.069 -0.972  0.212  0.026
       0.162 -0.009  0.191  0.881  0.401
      -0.055  0.993 -0.065 -0.002  0.080
     occupation matrix ns (before diag.):
       0.979 -0.001 -0.001  0.003 -0.001
      -0.001  0.999 -0.000  0.000  0.000
      -0.001 -0.000  0.998  0.000  0.000
       0.003  0.000  0.000  0.998  0.000
      -0.001  0.000  0.000  0.000  0.995
     SPIN  2
     eigenvalues:
       0.266  0.886  0.962  0.975  0.981
     eigenvectors (columns):
       0.014 -0.995  0.071  0.067 -0.018
      -0.074 -0.079 -0.988 -0.114  0.009
      -0.058 -0.058  0.123 -0.989 -0.034
       0.009  0.020 -0.015  0.031 -0.999
       0.995  0.004 -0.067 -0.067  0.008
     occupation matrix ns (before diag.):
       0.886 -0.005 -0.005  0.002 -0.009
      -0.005  0.958 -0.002  0.000  0.051
      -0.005 -0.002  0.972  0.001  0.041
       0.002  0.000  0.001  0.981 -0.006
      -0.009  0.051  0.041 -0.006  0.273
     ------------------------ ATOM   11 ------------------------
     Tr[ns( 11)] (up, down, total) =   4.96789  4.07198  9.03988
     Atomic magnetic moment for atom  11 =   0.89591
     SPIN  1
     eigenvalues:
       0.977  0.995  0.998  0.999  0.999
     eigenvectors (columns):
      -0.651  0.021  0.158 -0.716 -0.196
      -0.026  0.071  0.042  0.295 -0.951
       0.059  0.995  0.030 -0.036  0.063
       0.756 -0.059  0.178 -0.594 -0.201
      -0.033 -0.026  0.970  0.214  0.109
     occupation matrix ns (before diag.):
       0.989 -0.000  0.001  0.011 -0.001
      -0.000  0.999 -0.000  0.001 -0.000
       0.001 -0.000  0.995 -0.001  0.000
       0.011  0.001 -0.001  0.986  0.001
      -0.001 -0.000  0.000  0.001  0.998
     SPIN  2
     eigenvalues:
       0.274  0.881  0.962  0.973  0.981
     eigenvectors (columns):
       0.025  0.559 -0.054 -0.055  0.825
      -0.008  0.036  0.970  0.232  0.055
      -1.000  0.009 -0.012  0.008  0.024
       0.006 -0.825 -0.015  0.055  0.562
       0.011  0.070 -0.235  0.970  0.001
     occupation matrix ns (before diag.):
       0.949 -0.001  0.017  0.046 -0.004
      -0.001  0.963 -0.006  0.003  0.002
       0.017 -0.006  0.275  0.005  0.008
       0.046  0.003  0.005  0.913  0.005
      -0.004  0.002  0.008  0.005  0.972
     ------------------------ ATOM   12 ------------------------
     Tr[ns( 12)] (up, down, total) =   4.96873  4.05923  9.02796
     Atomic magnetic moment for atom  12 =   0.90949
     SPIN  1
     eigenvalues:
       0.977  0.995  0.998  0.999  0.999
     eigenvectors (columns):
      -0.978 -0.059  0.125  0.156 -0.008
      -0.080 -0.053 -0.076 -0.416  0.901
      -0.079 -0.068 -0.963  0.248  0.022
       0.161  0.011  0.217  0.861  0.431
      -0.069  0.994 -0.065 -0.005  0.045
     occupation matrix ns (before diag.):
       0.978 -0.002 -0.002  0.003 -0.001
      -0.002  0.999 -0.000  0.000  0.000
      -0.002 -0.000  0.998  0.000  0.000
       0.003  0.000  0.000  0.998  0.000
      -0.001  0.000  0.000  0.000  0.995
     SPIN  2
     eigenvalues:
       0.266  0.873  0.963  0.975  0.982
     eigenvectors (columns):
       0.039  0.994 -0.064  0.075 -0.039
      -0.073  0.075  0.990 -0.094  0.016
      -0.067  0.068 -0.103 -0.989 -0.055
       0.013 -0.042  0.025  0.049 -0.997
       0.994 -0.028  0.068 -0.077  0.012
     occupation matrix ns (before diag.):
       0.873 -0.005 -0.005  0.004 -0.024
      -0.005  0.959 -0.003  0.001  0.051
      -0.005 -0.003  0.971  0.001  0.047
       0.004  0.001  0.001  0.982 -0.009
      -0.024  0.051  0.047 -0.009  0.274
     ------------------------ ATOM   13 ------------------------
     Tr[ns( 13)] (up, down, total) =   4.96477  4.06813  9.03290
     Atomic magnetic moment for atom  13 =   0.89664
     SPIN  1
     eigenvalues:
       0.974  0.996  0.998  0.999  0.999
     eigenvectors (columns):
      -0.559  0.007 -0.760 -0.242  0.227
       0.076  0.110 -0.287 -0.151 -0.936
      -0.078  0.985  0.048  0.127  0.074
       0.821  0.084 -0.498 -0.100  0.246
      -0.033 -0.104 -0.300  0.945 -0.075
     occupation matrix ns (before diag.):
       0.991  0.001 -0.001  0.011 -0.001
       0.001  0.998 -0.000 -0.002  0.000
      -0.001 -0.000  0.996  0.001  0.000
       0.011 -0.002  0.001  0.982  0.001
      -0.001  0.000  0.000  0.001  0.998
     SPIN  2
     eigenvalues:
       0.305  0.848  0.966  0.969  0.981
     eigenvectors (columns):
       0.043 -0.433  0.151  0.063  0.885
       0.030 -0.003  0.975 -0.153 -0.159
       0.998  0.002 -0.031  0.042 -0.045
       0.014  0.895  0.092  0.149  0.411
      -0.043 -0.110  0.130  0.974 -0.143
     occupation matrix ns (before diag.):
       0.955 -0.003 -0.029  0.051 -0.006
      -0.003  0.965 -0.020 -0.001  0.001
      -0.029 -0.020  0.308 -0.009  0.029
       0.051 -0.001 -0.009  0.874  0.011
      -0.006  0.001  0.029  0.011  0.966
     ------------------------ ATOM   14 ------------------------
     Tr[ns( 14)] (up, down, total) =   4.96707  4.00749  8.97457
     Atomic magnetic moment for atom  14 =   0.95958
     SPIN  1
     eigenvalues:
       0.976  0.994  0.998  0.999  0.999
     eigenvectors (columns):
       0.972 -0.151 -0.061  0.170  0.000
       0.036 -0.100 -0.018 -0.299 -0.948
       0.059 -0.053  0.997 -0.025 -0.003
      -0.147  0.085  0.036  0.935 -0.310
       0.170  0.978  0.039 -0.087 -0.070
     occupation matrix ns (before diag.):
       0.978 -0.001 -0.001  0.003 -0.003
      -0.001  0.999 -0.000  0.000  0.000
      -0.001 -0.000  0.998  0.000 -0.000
       0.003  0.000  0.000  0.998  0.000
      -0.003  0.000 -0.000  0.000  0.994
     SPIN  2
     eigenvalues:
       0.273  0.824  0.960  0.970  0.981
     eigenvectors (columns):
       0.029 -0.995  0.026  0.019 -0.085
      -0.054  0.017  0.989  0.088  0.107
      -0.042 -0.006 -0.114  0.964  0.237
       0.096  0.092  0.085  0.250 -0.955
       0.993  0.021  0.040  0.021  0.111
     occupation matrix ns (before diag.):
       0.825  0.003 -0.000  0.012 -0.017
       0.003  0.959 -0.000  0.002  0.037
      -0.000 -0.000  0.969  0.001  0.030
       0.012  0.002  0.001  0.972 -0.068
      -0.017  0.037  0.030 -0.068  0.283
     ------------------------ ATOM   15 ------------------------
     Tr[ns( 15)] (up, down, total) =   4.97553  4.38077  9.35630
     Atomic magnetic moment for atom  15 =   0.59476
     SPIN  1
     eigenvalues:
       0.988  0.992  0.998  0.999  0.999
     eigenvectors (columns):
      -0.268  0.078  0.496  0.805 -0.164
      -0.313 -0.081 -0.842  0.382 -0.202
      -0.163 -0.856  0.172 -0.165 -0.430
       0.887 -0.230 -0.119  0.376 -0.070
      -0.133 -0.450 -0.027  0.191  0.862
     occupation matrix ns (before diag.):
       0.998 -0.001 -0.000  0.003 -0.000
      -0.001  0.997 -0.001  0.003 -0.001
      -0.000 -0.001  0.994  0.000 -0.003
       0.003  0.003  0.000  0.990  0.001
      -0.000 -0.001 -0.003  0.001  0.997
     SPIN  2
     eigenvalues:
       0.550  0.907  0.957  0.980  0.987
     eigenvectors (columns):
       0.038  0.134  0.184  0.259  0.938
       0.061  0.044  0.319 -0.927  0.185
       0.942 -0.050 -0.327 -0.043  0.045
      -0.029 -0.988  0.084  0.005  0.125
       0.327  0.032  0.866  0.269 -0.262
     occupation matrix ns (before diag.):
       0.984 -0.002 -0.013  0.011 -0.011
      -0.002  0.976 -0.022  0.004 -0.016
      -0.013 -0.022  0.596  0.009 -0.126
       0.011  0.004  0.009  0.908  0.005
      -0.011 -0.016 -0.126  0.005  0.917
     ------------------------ ATOM   16 ------------------------
     Tr[ns( 16)] (up, down, total) =   4.95684  4.24137  9.19821
     Atomic magnetic moment for atom  16 =   0.71546
     SPIN  1
     eigenvalues:
       0.965  0.996  0.998  0.999  0.999
     eigenvectors (columns):
       0.626  0.758 -0.117  0.091 -0.106
       0.021 -0.174 -0.133  0.966 -0.137
       0.048 -0.192 -0.931 -0.197 -0.234
      -0.231  0.103  0.220 -0.079 -0.939
       0.743 -0.590  0.231 -0.116 -0.183
     occupation matrix ns (before diag.):
       0.984 -0.000 -0.001  0.005 -0.014
      -0.000  0.999 -0.000  0.000 -0.001
      -0.001 -0.000  0.998  0.001 -0.001
       0.005  0.000  0.001  0.997  0.006
      -0.014 -0.001 -0.001  0.006  0.979
     SPIN  2
     eigenvalues:
       0.435  0.911  0.945  0.964  0.986
     eigenvectors (columns):
       0.374  0.100 -0.558 -0.708 -0.193
      -0.031 -0.685 -0.310  0.292 -0.590
       0.055  0.598  0.234  0.134 -0.753
      -0.120 -0.376  0.673 -0.592 -0.204
       0.917 -0.149  0.292  0.213  0.077
     occupation matrix ns (before diag.):
       0.884  0.009 -0.008  0.034 -0.178
       0.009  0.944  0.034 -0.009  0.010
      -0.008  0.034  0.955  0.016 -0.024
       0.034 -0.009  0.016  0.941  0.051
      -0.178  0.010 -0.024  0.051  0.516

     Number of occupied Hubbard levels =  145.0355

     negative rho (up, down):  1.595E-04 8.549E-05

     total cpu time spent up to now is     2296.4 secs

     total energy              =   -4068.46437586 Ry
     estimated scf accuracy    <      19.48925012 Ry

     total magnetization       =    16.33 Bohr mag/cell
     absolute magnetization    =    17.56 Bohr mag/cell

     iteration #  2     ecut=    90.00 Ry     beta= 0.30
     Davidson diagonalization with overlap
     ethr =  7.17E-03,  avg # of iterations =  3.4

     negative rho (up, down):  1.834E-04 1.154E-04

     total cpu time spent up to now is     3770.5 secs

     total energy              =   -4054.11015725 Ry
     estimated scf accuracy    <     942.89803434 Ry

     total magnetization       =    14.26 Bohr mag/cell
     absolute magnetization    =    15.58 Bohr mag/cell

     iteration #  3     ecut=    90.00 Ry     beta= 0.30
     Davidson diagonalization with overlap
     ethr =  7.17E-03,  avg # of iterations =  2.8

     negative rho (up, down):  1.377E-04 8.738E-05

     total cpu time spent up to now is     5179.9 secs

     total energy              =   -4068.65603555 Ry
     estimated scf accuracy    <     106.17341783 Ry

     total magnetization       =     9.05 Bohr mag/cell
     absolute magnetization    =    11.77 Bohr mag/cell

     iteration #  4     ecut=    90.00 Ry     beta= 0.30
     Davidson diagonalization with overlap
     ethr =  7.17E-03,  avg # of iterations =  3.3

     negative rho (up, down):  9.021E-05 4.127E-05

     total cpu time spent up to now is     6635.9 secs

     total energy              =   -4064.01539890 Ry
     estimated scf accuracy    <     333.64109359 Ry

     total magnetization       =    14.36 Bohr mag/cell
     absolute magnetization    =    15.92 Bohr mag/cell

     iteration #  5     ecut=    90.00 Ry     beta= 0.30
     Davidson diagonalization with overlap
     ethr =  7.17E-03,  avg # of iterations =  2.5

     negative rho (up, down):  1.105E-04 5.692E-05

     total cpu time spent up to now is     8035.0 secs

     total energy              =   -4072.62643118 Ry
     estimated scf accuracy    <       9.33369746 Ry

     total magnetization       =    13.96 Bohr mag/cell
     absolute magnetization    =    14.81 Bohr mag/cell

     iteration #  6     ecut=    90.00 Ry     beta= 0.30
     Davidson diagonalization with overlap
     ethr =  3.43E-03,  avg # of iterations =  2.4

     negative rho (up, down):  1.382E-04 8.268E-05

     total cpu time spent up to now is     9427.5 secs

     total energy              =   -4072.90542959 Ry
     estimated scf accuracy    <      13.76409365 Ry

     total magnetization       =    10.70 Bohr mag/cell
     absolute magnetization    =    12.55 Bohr mag/cell

     iteration #  7     ecut=    90.00 Ry     beta= 0.30
     Davidson diagonalization with overlap
     ethr =  3.43E-03,  avg # of iterations =  2.2

     negative rho (up, down):  1.605E-04 9.722E-05

     total cpu time spent up to now is    10810.6 secs

     total energy              =   -4073.07324677 Ry
     estimated scf accuracy    <      16.13611347 Ry

     total magnetization       =    12.47 Bohr mag/cell
     absolute magnetization    =    13.42 Bohr mag/cell

     iteration #  8     ecut=    90.00 Ry     beta= 0.30
     Davidson diagonalization with overlap
     ethr =  3.43E-03,  avg # of iterations =  1.2

     negative rho (up, down):  1.756E-04 1.073E-04

     total cpu time spent up to now is    12113.0 secs

     total energy              =   -4073.60915698 Ry
     estimated scf accuracy    <       2.87124919 Ry

     total magnetization       =    12.08 Bohr mag/cell
     absolute magnetization    =    12.52 Bohr mag/cell

     iteration #  9     ecut=    90.00 Ry     beta= 0.30
     Davidson diagonalization with overlap
     ethr =  1.06E-03,  avg # of iterations =  1.9

     negative rho (up, down):  1.915E-04 1.169E-04

     total cpu time spent up to now is    13476.5 secs

     total energy              =   -4073.70570753 Ry
     estimated scf accuracy    <       0.47249094 Ry

     total magnetization       =    12.91 Bohr mag/cell
     absolute magnetization    =    13.24 Bohr mag/cell

     iteration # 10     ecut=    90.00 Ry     beta= 0.30
     Davidson diagonalization with overlap
     c_bands:  1 eigenvalues not converged
     c_bands:  1 eigenvalues not converged
     c_bands:  1 eigenvalues not converged
     c_bands:  1 eigenvalues not converged
     ethr =  1.74E-04,  avg # of iterations = 11.8

     negative rho (up, down):  2.161E-04 1.350E-04

     total cpu time spent up to now is    15192.0 secs

     total energy              =   -4073.74324987 Ry
     estimated scf accuracy    <       0.39947727 Ry

     total magnetization       =    12.79 Bohr mag/cell
     absolute magnetization    =    13.15 Bohr mag/cell

     iteration # 11     ecut=    90.00 Ry     beta= 0.30
     Davidson diagonalization with overlap
     ethr =  1.47E-04,  avg # of iterations =  1.9

     negative rho (up, down):  2.386E-04 1.514E-04

     total cpu time spent up to now is    16543.2 secs

     total energy              =   -4073.75671504 Ry
     estimated scf accuracy    <       0.07860487 Ry

     total magnetization       =    13.17 Bohr mag/cell
     absolute magnetization    =    13.47 Bohr mag/cell

     iteration # 12     ecut=    90.00 Ry     beta= 0.30
     Davidson diagonalization with overlap
     ethr =  2.89E-05,  avg # of iterations = 10.2

     negative rho (up, down):  2.666E-04 1.746E-04

     total cpu time spent up to now is    18225.1 secs

     total energy              =   -4073.76458583 Ry
     estimated scf accuracy    <       0.02935129 Ry

     total magnetization       =    13.24 Bohr mag/cell
     absolute magnetization    =    13.56 Bohr mag/cell

     iteration # 13     ecut=    90.00 Ry     beta= 0.30
     Davidson diagonalization with overlap
     c_bands:  1 eigenvalues not converged
     ethr =  1.08E-05,  avg # of iterations =  5.0

     negative rho (up, down):  2.945E-04 1.984E-04

     total cpu time spent up to now is    19702.5 secs

     total energy              =   -4073.76973346 Ry
     estimated scf accuracy    <       0.02751951 Ry

     total magnetization       =    13.31 Bohr mag/cell
     absolute magnetization    =    13.66 Bohr mag/cell

     iteration # 14     ecut=    90.00 Ry     beta= 0.30
     Davidson diagonalization with overlap
     ethr =  1.01E-05,  avg # of iterations =  2.8

     negative rho (up, down):  3.554E-04 2.584E-04

     total cpu time spent up to now is    21095.7 secs

     total energy              =   -4073.77303058 Ry
     estimated scf accuracy    <       0.01072250 Ry

     total magnetization       =    13.31 Bohr mag/cell
     absolute magnetization    =    13.69 Bohr mag/cell

     iteration # 15     ecut=    90.00 Ry     beta= 0.30
     Davidson diagonalization with overlap
     ethr =  3.94E-06,  avg # of iterations = 11.4

     negative rho (up, down):  3.799E-04 2.868E-04

     total cpu time spent up to now is    22832.5 secs

     total energy              =   -4073.77399372 Ry
     estimated scf accuracy    <       0.03267434 Ry

     total magnetization       =    13.31 Bohr mag/cell
     absolute magnetization    =    13.72 Bohr mag/cell

     iteration # 16     ecut=    90.00 Ry     beta= 0.30
     Davidson diagonalization with overlap
     ethr =  3.94E-06,  avg # of iterations =  2.4

     negative rho (up, down):  4.456E-04 4.073E-04

     total cpu time spent up to now is    24203.3 secs

     total energy              =   -4073.77534911 Ry
     estimated scf accuracy    <       0.00248215 Ry

     total magnetization       =    13.43 Bohr mag/cell
     absolute magnetization    =    13.83 Bohr mag/cell

     iteration # 17     ecut=    90.00 Ry     beta= 0.30
     Davidson diagonalization with overlap
     c_bands:  1 eigenvalues not converged
     ethr =  9.13E-07,  avg # of iterations = 10.4

     negative rho (up, down):  4.258E-04 3.703E-04

     total cpu time spent up to now is    25812.5 secs

     total energy              =   -4073.77603859 Ry
     estimated scf accuracy    <       0.00101888 Ry

     total magnetization       =    13.45 Bohr mag/cell
     absolute magnetization    =    13.87 Bohr mag/cell

     iteration # 18     ecut=    90.00 Ry     beta= 0.30
     Davidson diagonalization with overlap
     ethr =  3.75E-07,  avg # of iterations =  2.0

     negative rho (up, down):  4.174E-04 3.549E-04

     total cpu time spent up to now is    27189.9 secs

     total energy              =   -4073.77647144 Ry
     estimated scf accuracy    <       0.00067433 Ry

     total magnetization       =    13.45 Bohr mag/cell
     absolute magnetization    =    13.88 Bohr mag/cell

     iteration # 19     ecut=    90.00 Ry     beta= 0.30
     Davidson diagonalization with overlap
     ethr =  2.48E-07,  avg # of iterations =  1.8

     negative rho (up, down):  4.014E-04 3.218E-04

     total cpu time spent up to now is    28553.5 secs

     total energy              =   -4073.77672117 Ry
     estimated scf accuracy    <       0.00041467 Ry

     total magnetization       =    13.47 Bohr mag/cell
     absolute magnetization    =    13.91 Bohr mag/cell

     iteration # 20     ecut=    90.00 Ry     beta= 0.30
     Davidson diagonalization with overlap
     ethr =  1.52E-07,  avg # of iterations =  1.6

     negative rho (up, down):  4.104E-04 3.369E-04

     total cpu time spent up to now is    29883.1 secs

     total energy              =   -4073.77685749 Ry
     estimated scf accuracy    <       0.00039564 Ry

     total magnetization       =    13.44 Bohr mag/cell
     absolute magnetization    =    13.89 Bohr mag/cell

     iteration # 21     ecut=    90.00 Ry     beta= 0.30
     Davidson diagonalization with overlap
     ethr =  1.45E-07,  avg # of iterations =  1.5

     negative rho (up, down):  3.977E-04 3.117E-04

     total cpu time spent up to now is    31193.5 secs

     total energy              =   -4073.77697838 Ry
     estimated scf accuracy    <       0.00045737 Ry

     total magnetization       =    13.46 Bohr mag/cell
     absolute magnetization    =    13.91 Bohr mag/cell

     iteration # 22     ecut=    90.00 Ry     beta= 0.30
     Davidson diagonalization with overlap
     ethr =  1.45E-07,  avg # of iterations =  1.1

     negative rho (up, down):  3.937E-04 3.030E-04

     total cpu time spent up to now is    32485.3 secs

     total energy              =   -4073.77709829 Ry
     estimated scf accuracy    <       0.00019055 Ry

     total magnetization       =    13.45 Bohr mag/cell
     absolute magnetization    =    13.90 Bohr mag/cell

     iteration # 23     ecut=    90.00 Ry     beta= 0.30
     Davidson diagonalization with overlap
     ethr =  7.01E-08,  avg # of iterations =  2.0

     negative rho (up, down):  3.809E-04 2.797E-04

     total cpu time spent up to now is    33885.8 secs

     total energy              =   -4073.77728101 Ry
     estimated scf accuracy    <       0.00021723 Ry

     total magnetization       =    13.44 Bohr mag/cell
     absolute magnetization    =    13.89 Bohr mag/cell

     iteration # 24     ecut=    90.00 Ry     beta= 0.30
     Davidson diagonalization with overlap
     ethr =  7.01E-08,  avg # of iterations =  2.0

     negative rho (up, down):  3.793E-04 2.762E-04

     total cpu time spent up to now is    35268.2 secs

     total energy              =   -4073.77742933 Ry
     estimated scf accuracy    <       0.00011863 Ry

     total magnetization       =    13.44 Bohr mag/cell
     absolute magnetization    =    13.88 Bohr mag/cell

     iteration # 25     ecut=    90.00 Ry     beta= 0.30
     Davidson diagonalization with overlap
     ethr =  4.36E-08,  avg # of iterations =  1.9

     negative rho (up, down):  3.803E-04 2.772E-04

     total cpu time spent up to now is    36646.3 secs

     total energy              =   -4073.77746491 Ry
     estimated scf accuracy    <       0.00038396 Ry

     total magnetization       =    13.42 Bohr mag/cell
     absolute magnetization    =    13.87 Bohr mag/cell

     iteration # 26     ecut=    90.00 Ry     beta= 0.30
     Davidson diagonalization with overlap
     ethr =  4.36E-08,  avg # of iterations =  1.2

     negative rho (up, down):  3.800E-04 2.756E-04

     total cpu time spent up to now is    37939.9 secs

     total energy              =   -4073.77751295 Ry
     estimated scf accuracy    <       0.00019332 Ry

     total magnetization       =    13.43 Bohr mag/cell
     absolute magnetization    =    13.88 Bohr mag/cell

     iteration # 27     ecut=    90.00 Ry     beta= 0.30
     Davidson diagonalization with overlap
     ethr =  4.36E-08,  avg # of iterations =  2.0

     negative rho (up, down):  3.810E-04 2.766E-04

     total cpu time spent up to now is    39313.4 secs

     total energy              =   -4073.77756266 Ry
     estimated scf accuracy    <       0.00003156 Ry

     total magnetization       =    13.42 Bohr mag/cell
     absolute magnetization    =    13.86 Bohr mag/cell

     iteration # 28     ecut=    90.00 Ry     beta= 0.30
     Davidson diagonalization with overlap
     ethr =  1.16E-08,  avg # of iterations =  2.1

     negative rho (up, down):  3.835E-04 2.799E-04

     total cpu time spent up to now is    40732.8 secs

     total energy              =   -4073.77758277 Ry
     estimated scf accuracy    <       0.00002932 Ry

     total magnetization       =    13.42 Bohr mag/cell
     absolute magnetization    =    13.85 Bohr mag/cell

     iteration # 29     ecut=    90.00 Ry     beta= 0.30
     Davidson diagonalization with overlap
     ethr =  1.08E-08,  avg # of iterations =  2.5

     negative rho (up, down):  3.853E-04 2.827E-04

     total cpu time spent up to now is    42197.6 secs

     total energy              =   -4073.77764528 Ry
     estimated scf accuracy    <       0.00001273 Ry

     total magnetization       =    13.41 Bohr mag/cell
     absolute magnetization    =    13.84 Bohr mag/cell

     iteration # 30     ecut=    90.00 Ry     beta= 0.30
     Davidson diagonalization with overlap
     ethr =  4.68E-09,  avg # of iterations =  3.1

     negative rho (up, down):  3.866E-04 2.845E-04

     total cpu time spent up to now is    43641.5 secs

     total energy              =   -4073.77765576 Ry
     estimated scf accuracy    <       0.00000978 Ry

     total magnetization       =    13.41 Bohr mag/cell
     absolute magnetization    =    13.84 Bohr mag/cell

     iteration # 31     ecut=    90.00 Ry     beta= 0.30
     Davidson diagonalization with overlap
     ethr =  3.60E-09,  avg # of iterations =  2.1

     negative rho (up, down):  3.869E-04 2.849E-04

     total cpu time spent up to now is    45063.2 secs

     total energy              =   -4073.77766536 Ry
     estimated scf accuracy    <       0.00001367 Ry

     total magnetization       =    13.41 Bohr mag/cell
     absolute magnetization    =    13.83 Bohr mag/cell

     iteration # 32     ecut=    90.00 Ry     beta= 0.30
     Davidson diagonalization with overlap
     ethr =  3.60E-09,  avg # of iterations =  2.0

     negative rho (up, down):  3.879E-04 2.862E-04

     total cpu time spent up to now is    46452.8 secs

     total energy              =   -4073.77767325 Ry
     estimated scf accuracy    <       0.00000593 Ry

     total magnetization       =    13.41 Bohr mag/cell
     absolute magnetization    =    13.84 Bohr mag/cell

     iteration # 33     ecut=    90.00 Ry     beta= 0.30
     Davidson diagonalization with overlap
     ethr =  2.18E-09,  avg # of iterations =  2.0

     negative rho (up, down):  3.878E-04 2.859E-04

     total cpu time spent up to now is    47852.4 secs

     total energy              =   -4073.77767531 Ry
     estimated scf accuracy    <       0.00000332 Ry

     total magnetization       =    13.41 Bohr mag/cell
     absolute magnetization    =    13.83 Bohr mag/cell

     iteration # 34     ecut=    90.00 Ry     beta= 0.30
     Davidson diagonalization with overlap
     ethr =  1.22E-09,  avg # of iterations =  2.2

     negative rho (up, down):  3.877E-04 2.855E-04

     total cpu time spent up to now is    49257.0 secs

     total energy              =   -4073.77767832 Ry
     estimated scf accuracy    <       0.00000300 Ry

     total magnetization       =    13.41 Bohr mag/cell
     absolute magnetization    =    13.83 Bohr mag/cell

     iteration # 35     ecut=    90.00 Ry     beta= 0.30
     Davidson diagonalization with overlap
     ethr =  1.10E-09,  avg # of iterations =  1.5

     negative rho (up, down):  3.878E-04 2.855E-04

     total cpu time spent up to now is    50584.8 secs

     total energy              =   -4073.77767874 Ry
     estimated scf accuracy    <       0.00000323 Ry

     total magnetization       =    13.41 Bohr mag/cell
     absolute magnetization    =    13.84 Bohr mag/cell

     iteration # 36     ecut=    90.00 Ry     beta= 0.30
     Davidson diagonalization with overlap
     ethr =  1.10E-09,  avg # of iterations =  1.0

     negative rho (up, down):  3.876E-04 2.850E-04

     total cpu time spent up to now is    51864.7 secs

     total energy              =   -4073.77767917 Ry
     estimated scf accuracy    <       0.00000808 Ry

     total magnetization       =    13.41 Bohr mag/cell
     absolute magnetization    =    13.84 Bohr mag/cell

     iteration # 37     ecut=    90.00 Ry     beta= 0.30
     Davidson diagonalization with overlap
     ethr =  1.10E-09,  avg # of iterations =  2.0

     negative rho (up, down):  3.873E-04 2.844E-04

     total cpu time spent up to now is    53246.7 secs

     total energy              =   -4073.77768033 Ry
     estimated scf accuracy    <       0.00000089 Ry

     total magnetization       =    13.41 Bohr mag/cell
     absolute magnetization    =    13.84 Bohr mag/cell

     iteration # 38     ecut=    90.00 Ry     beta= 0.30
     Davidson diagonalization with overlap
     ethr =  3.26E-10,  avg # of iterations =  2.0

     negative rho (up, down):  3.872E-04 2.841E-04

     total cpu time spent up to now is    54628.8 secs

     total energy              =   -4073.77768061 Ry
     estimated scf accuracy    <       0.00000039 Ry

     total magnetization       =    13.41 Bohr mag/cell
     absolute magnetization    =    13.84 Bohr mag/cell

     iteration # 39     ecut=    90.00 Ry     beta= 0.30
     Davidson diagonalization with overlap
     ethr =  1.43E-10,  avg # of iterations =  2.0

     negative rho (up, down):  3.872E-04 2.840E-04

     total cpu time spent up to now is    56012.5 secs

     total energy              =   -4073.77768075 Ry
     estimated scf accuracy    <       0.00000023 Ry

     total magnetization       =    13.41 Bohr mag/cell
     absolute magnetization    =    13.84 Bohr mag/cell

     iteration # 40     ecut=    90.00 Ry     beta= 0.30
     Davidson diagonalization with overlap
     ethr =  8.46E-11,  avg # of iterations =  2.1

     negative rho (up, down):  3.872E-04 2.840E-04

     total cpu time spent up to now is    57403.8 secs

     total energy              =   -4073.77768086 Ry
     estimated scf accuracy    <       0.00000013 Ry

     total magnetization       =    13.41 Bohr mag/cell
     absolute magnetization    =    13.84 Bohr mag/cell

     iteration # 41     ecut=    90.00 Ry     beta= 0.30
     Davidson diagonalization with overlap
     ethr =  4.80E-11,  avg # of iterations =  2.4

     negative rho (up, down):  3.872E-04 2.839E-04

     total cpu time spent up to now is    58799.5 secs

     total energy              =   -4073.77768090 Ry
     estimated scf accuracy    <       0.00000018 Ry

     total magnetization       =    13.41 Bohr mag/cell
     absolute magnetization    =    13.84 Bohr mag/cell

     iteration # 42     ecut=    90.00 Ry     beta= 0.30
     Davidson diagonalization with overlap
     ethr =  4.80E-11,  avg # of iterations =  2.0

     negative rho (up, down):  3.873E-04 2.839E-04

     total cpu time spent up to now is    60181.6 secs

     total energy              =   -4073.77768094 Ry
     estimated scf accuracy    <       0.00000008 Ry

     total magnetization       =    13.41 Bohr mag/cell
     absolute magnetization    =    13.84 Bohr mag/cell

     iteration # 43     ecut=    90.00 Ry     beta= 0.30
     Davidson diagonalization with overlap
     ethr =  2.99E-11,  avg # of iterations =  2.0

     negative rho (up, down):  3.873E-04 2.840E-04

     total cpu time spent up to now is    61567.3 secs

     total energy              =   -4073.77768097 Ry
     estimated scf accuracy    <       0.00000005 Ry

     total magnetization       =    13.41 Bohr mag/cell
     absolute magnetization    =    13.84 Bohr mag/cell

     iteration # 44     ecut=    90.00 Ry     beta= 0.30
     Davidson diagonalization with overlap
     ethr =  1.96E-11,  avg # of iterations =  2.4

     negative rho (up, down):  3.873E-04 2.840E-04

     total cpu time spent up to now is    62991.3 secs

     total energy              =   -4073.77768103 Ry
     estimated scf accuracy    <       0.00000004 Ry

     total magnetization       =    13.41 Bohr mag/cell
     absolute magnetization    =    13.84 Bohr mag/cell

     iteration # 45     ecut=    90.00 Ry     beta= 0.30
     Davidson diagonalization with overlap
     ethr =  1.39E-11,  avg # of iterations =  2.0

     negative rho (up, down):  3.873E-04 2.840E-04

     total cpu time spent up to now is    64384.7 secs

     total energy              =   -4073.77768105 Ry
     estimated scf accuracy    <       0.00000005 Ry

     total magnetization       =    13.41 Bohr mag/cell
     absolute magnetization    =    13.84 Bohr mag/cell

     iteration # 46     ecut=    90.00 Ry     beta= 0.30
     Davidson diagonalization with overlap
     ethr =  1.39E-11,  avg # of iterations =  1.0

     negative rho (up, down):  3.873E-04 2.840E-04

     total cpu time spent up to now is    65664.6 secs

     total energy              =   -4073.77768106 Ry
     estimated scf accuracy    <       0.00000010 Ry

     total magnetization       =    13.41 Bohr mag/cell
     absolute magnetization    =    13.84 Bohr mag/cell

     iteration # 47     ecut=    90.00 Ry     beta= 0.30
     Davidson diagonalization with overlap
     ethr =  1.39E-11,  avg # of iterations =  2.0

     negative rho (up, down):  3.873E-04 2.840E-04

     total cpu time spent up to now is    67047.6 secs

     total energy              =   -4073.77768108 Ry
     estimated scf accuracy    <       0.00000002 Ry

     total magnetization       =    13.41 Bohr mag/cell
     absolute magnetization    =    13.84 Bohr mag/cell

     iteration # 48     ecut=    90.00 Ry     beta= 0.30
     Davidson diagonalization with overlap
     ethr =  6.17E-12,  avg # of iterations =  2.2

     negative rho (up, down):  3.873E-04 2.839E-04
 
     Magnetic moment per site  (integrated on atomic sphere of radius R)
     atom   1 (R=0.180)  charge=  8.0794  magn=  0.0631
     atom   2 (R=0.180)  charge=  8.1116  magn=  0.4856
     atom   3 (R=0.180)  charge=  8.0963  magn=  0.5781
     atom   4 (R=0.180)  charge=  8.0892  magn=  0.5929
     atom   5 (R=0.180)  charge=  8.0860  magn=  0.6150
     atom   6 (R=0.180)  charge=  8.0882  magn=  0.6116
     atom   7 (R=0.180)  charge=  8.0862  magn=  0.6169
     atom   8 (R=0.180)  charge=  8.0869  magn=  0.6188
     atom   9 (R=0.180)  charge=  8.0853  magn=  0.6174
     atom  10 (R=0.180)  charge=  8.0868  magn=  0.6178
     atom  11 (R=0.180)  charge=  8.0929  magn=  0.5935
     atom  12 (R=0.180)  charge=  8.0878  magn=  0.6084
     atom  13 (R=0.180)  charge=  8.0953  magn=  0.5667
     atom  14 (R=0.180)  charge=  8.0902  magn=  0.5889
     atom  15 (R=0.180)  charge=  8.2339  magn=  0.1096
     atom  16 (R=0.180)  charge=  8.1463  magn=  0.3609
     atom  17 (R=0.180)  charge=  4.8411  magn=  0.1492
     atom  18 (R=0.180)  charge=  4.8029  magn=  0.2444
     atom  19 (R=0.180)  charge=  4.8703  magn=  0.2124
     atom  20 (R=0.180)  charge=  4.8661  magn=  0.2575
     atom  21 (R=0.180)  charge=  4.8843  magn=  0.2827
     atom  22 (R=0.180)  charge=  4.8759  magn=  0.2887
     atom  23 (R=0.180)  charge=  4.8779  magn=  0.3067
     atom  24 (R=0.180)  charge=  4.8790  magn=  0.3078
     atom  25 (R=0.180)  charge=  4.8775  magn=  0.3059
     atom  26 (R=0.180)  charge=  4.8788  magn=  0.3052
     atom  27 (R=0.180)  charge=  4.8758  magn=  0.3036
     atom  28 (R=0.180)  charge=  4.8823  magn=  0.2874
     atom  29 (R=0.180)  charge=  4.8661  magn=  0.3455
     atom  30 (R=0.180)  charge=  4.8667  magn=  0.2843
     atom  31 (R=0.180)  charge=  4.8303  magn=  0.2253
     atom  32 (R=0.180)  charge=  4.8682  magn=  0.2041

     total cpu time spent up to now is    68482.5 secs

     End of self-consistent calculation

     =================== HUBBARD OCCUPATIONS ===================
     ------------------------ ATOM    1 ------------------------
     Tr[ns(  1)] (up, down, total) =   4.67303  4.61850  9.29152
     Atomic magnetic moment for atom   1 =   0.05453
     SPIN  1
     eigenvalues:
       0.703  0.975  0.997  0.999  0.999
     eigenvectors (columns):
      -0.067 -0.519 -0.840  0.129  0.062
       0.033 -0.010  0.152  0.591  0.791
      -0.996 -0.010  0.087  0.001  0.024
      -0.052  0.854 -0.505  0.114  0.024
       0.005  0.032 -0.096 -0.788  0.608
     occupation matrix ns (before diag.):
       0.990  0.001 -0.020  0.009  0.000
       0.001  0.998  0.010  0.001  0.000
      -0.020  0.010  0.706 -0.015  0.002
       0.009  0.001 -0.015  0.980 -0.001
       0.000  0.000  0.002 -0.001  0.999
     SPIN  2
     eigenvalues:
       0.668  0.973  0.988  0.993  0.995
     eigenvectors (columns):
      -0.001  0.501  0.327  0.445  0.667
       0.033  0.046  0.620 -0.764  0.171
      -0.999  0.004  0.049 -0.008 -0.023
      -0.003 -0.864  0.224  0.218  0.395
      -0.043 -0.001 -0.676 -0.414  0.608
     occupation matrix ns (before diag.):
       0.989 -0.001 -0.001  0.009  0.002
      -0.001  0.991  0.010  0.000  0.003
      -0.001  0.010  0.669 -0.001 -0.014
       0.009  0.000 -0.001  0.978  0.001
       0.002  0.003 -0.014  0.001  0.991
     ------------------------ ATOM    2 ------------------------
     Tr[ns(  2)] (up, down, total) =   4.92239  4.44312  9.36551
     Atomic magnetic moment for atom   2 =   0.47927
     SPIN  1
     eigenvalues:
       0.948  0.987  0.993  0.996  0.998
     eigenvectors (columns):
       0.619  0.192 -0.758 -0.045  0.057
      -0.096  0.683  0.046 -0.096 -0.716
       0.059 -0.538 -0.077 -0.718 -0.431
      -0.208 -0.430 -0.353  0.638 -0.490
       0.749 -0.148  0.540  0.259 -0.242
     occupation matrix ns (before diag.):
       0.975  0.002 -0.001  0.006 -0.021
       0.002  0.993  0.004  0.002  0.005
      -0.001  0.004  0.994 -0.001 -0.002
       0.006  0.002 -0.001  0.992  0.008
      -0.021  0.005 -0.002  0.008  0.968
     SPIN  2
     eigenvalues:
       0.503  0.970  0.984  0.990  0.996
     eigenvectors (columns):
       0.207 -0.717 -0.218 -0.629  0.032
       0.082  0.132  0.700 -0.335  0.611
      -0.015 -0.037 -0.552  0.268  0.789
       0.125  0.682 -0.396 -0.601 -0.039
       0.967  0.053  0.030  0.245 -0.041
     occupation matrix ns (before diag.):
       0.958 -0.005  0.001 -0.003 -0.097
      -0.005  0.986  0.006 -0.005 -0.039
       0.001  0.006  0.992  0.000  0.007
      -0.003 -0.005  0.000  0.972 -0.060
      -0.097 -0.039  0.007 -0.060  0.534
     ------------------------ ATOM    3 ------------------------
     Tr[ns(  3)] (up, down, total) =   4.94756  4.38981  9.33737
     Atomic magnetic moment for atom   3 =   0.55775
     SPIN  1
     eigenvalues:
       0.972  0.979  0.998  0.999  0.999
     eigenvectors (columns):
       0.645  0.082 -0.151 -0.742  0.065
       0.028  0.056  0.106  0.096  0.988
      -0.151  0.987 -0.017 -0.023 -0.048
      -0.748 -0.126 -0.082 -0.639  0.099
       0.031  0.013  0.979 -0.179 -0.090
     occupation matrix ns (before diag.):
       0.987 -0.001  0.001  0.013 -0.001
      -0.001  0.999 -0.001  0.001 -0.000
       0.001 -0.001  0.979 -0.001 -0.000
       0.013  0.001 -0.001  0.983  0.001
      -0.001 -0.000 -0.000  0.001  0.998
     SPIN  2
     eigenvalues:
       0.439  0.967  0.993  0.995  0.996
     eigenvectors (columns):
      -0.033  0.626  0.081 -0.149  0.760
       0.024  0.016  0.946  0.320 -0.050
       0.999  0.013 -0.016 -0.022  0.031
      -0.009 -0.778  0.064 -0.052  0.623
       0.010  0.051 -0.308  0.934  0.174
     occupation matrix ns (before diag.):
       0.984 -0.000  0.018  0.014 -0.001
      -0.000  0.993 -0.013  0.000  0.000
       0.018 -0.013  0.440  0.006 -0.005
       0.014  0.000  0.006  0.978  0.001
[...]
    -3.1349  -3.0836  -3.0327  -2.9438  -2.9322  -2.8358  -2.7847  -2.7546
    -2.7081  -2.6765  -2.6304  -2.5967  -2.5541  -2.5148  -2.4395  -2.3792
    -2.3415  -2.2718  -2.1994  -2.1616  -2.1205  -2.0768  -2.0145  -1.9564
    -1.8689  -1.6990  -1.5591  -1.5190  -1.5026  -1.2901  -0.9389  -0.5198
    -0.3241   0.3623   0.3775   0.5447   0.6773   0.8158   0.8979   0.9851
     1.0821   1.2898   1.3467   1.5216   1.6108   1.6536   1.7473   1.8144
     1.9534   2.6884   3.4982   4.2003   4.3032   4.5836   4.6897   4.8625
     5.0409   5.2667   5.5679   5.6348   5.6976   5.8091   5.9846   6.1134
     6.2622   6.4568   6.6638

          k =-0.2062-0.1127 0.2667 ( 82174 PWs)   bands (ev):

   -18.5560 -18.4450 -18.3049 -18.1671 -18.0040 -17.8535 -17.7601 -17.6960
   -17.5602 -17.4811 -17.4087 -17.3347 -17.2287 -17.2049 -17.0649 -16.4810
    -7.3109  -7.1219  -6.8629  -6.5981  -6.5681  -6.5284  -6.3307  -6.3148
    -6.2578  -6.1178  -5.9952  -5.9170  -5.8191  -5.7863  -5.7095  -5.6711
    -5.6393  -5.5491  -5.5028  -5.4584  -5.4258  -5.4129  -5.3246  -5.2767
    -5.2220  -5.1746  -5.1518  -5.0899  -5.0589  -5.0358  -4.9824  -4.9235
    -4.8208  -4.8005  -4.7555  -4.7105  -4.6881  -4.6491  -4.6350  -4.6239
    -4.6017  -4.5804  -4.5505  -4.5451  -4.5089  -4.4960  -4.4746  -4.4660
    -4.4337  -4.3963  -4.3860  -4.3632  -4.3517  -4.3199  -4.3065  -4.2447
    -4.1983  -4.1466  -4.0788  -4.0447  -4.0142  -3.9709  -3.9249  -3.8940
    -3.8599  -3.8272  -3.7794  -3.7719  -3.7191  -3.6594  -3.6154  -3.5520
    -3.5036  -3.4600  -3.4134  -3.3843  -3.3200  -3.2604  -3.2053  -3.1708
    -3.1261  -3.0871  -3.0544  -2.9835  -2.9469  -2.9122  -2.8837  -2.8352
    -2.7838  -2.7727  -2.7272  -2.6982  -2.6484  -2.6099  -2.5892  -2.5436
    -2.4405  -2.3142  -2.2709  -2.2192  -2.1175  -2.0399  -1.9779  -1.9340
    -1.7972  -1.7522  -1.6579  -1.5269  -1.3678  -1.2946  -0.9623  -0.3877
    -0.3160   0.1542   0.3767   0.6196   0.7448   0.8916   0.9943   1.0920
     1.1630   1.2841   1.4320   1.5697   1.6261   1.7248   1.7734   1.8230
     2.5424   3.8952   4.3395   4.5623   4.7230   4.8244   4.8910   5.0260
     5.4085   5.4486   5.6426   5.7926   5.9506   6.0384   6.2027   6.3126
     6.4374   6.4516   6.8842

          k =-0.1715-0.2255 0.3030 ( 82223 PWs)   bands (ev):

   -18.4386 -18.3224 -18.2078 -18.1083 -18.0141 -17.9429 -17.8911 -17.8452
   -17.6920 -17.5247 -17.3928 -17.2903 -17.1990 -17.1924 -17.0622 -16.4955
    -7.0163  -6.8408  -6.6329  -6.6087  -6.5809  -6.4438  -6.4139  -6.3699
    -6.3317  -6.2334  -6.1161  -6.0540  -5.9350  -5.8227  -5.7533  -5.7014
    -5.6347  -5.5571  -5.5103  -5.4735  -5.4270  -5.3667  -5.3096  -5.1949
    -5.1671  -5.1042  -5.0840  -5.0730  -5.0459  -5.0205  -4.9580  -4.9448
    -4.8841  -4.7734  -4.7378  -4.7165  -4.7066  -4.6502  -4.6158  -4.5854
    -4.5727  -4.5596  -4.5451  -4.5315  -4.5034  -4.4896  -4.4540  -4.4321
    -4.4161  -4.4035  -4.3720  -4.3562  -4.3337  -4.2976  -4.2719  -4.2359
    -4.2061  -4.1882  -4.1553  -4.0983  -4.0655  -4.0294  -3.9762  -3.9261
    -3.8962  -3.8449  -3.8412  -3.7921  -3.7426  -3.7123  -3.6286  -3.6046
    -3.5747  -3.5051  -3.4201  -3.3950  -3.3223  -3.2451  -3.2013  -3.1572
    -3.1123  -3.0760  -3.0358  -3.0020  -2.9645  -2.9164  -2.8974  -2.8394
    -2.7969  -2.7354  -2.6999  -2.6623  -2.6203  -2.5878  -2.5188  -2.4828
    -2.4503  -2.3194  -2.1914  -2.1753  -2.1285  -2.0403  -1.9680  -1.9022
    -1.8615  -1.7254  -1.6412  -1.5462  -1.4381  -1.3180  -0.9716  -0.3897
    -0.3300   0.0132   0.2518   0.4988   0.5226   0.8285   0.8634   0.9717
     1.2027   1.3122   1.4141   1.5454   1.6559   1.7274   1.8741   2.0000
     2.7429   4.4230   4.5415   4.5728   4.6837   4.8273   4.9722   5.0607
     5.3707   5.5068   5.6352   5.7468   5.8152   5.9000   6.0890   6.1753
     6.5073   6.7712   7.1774

          k =-0.1367-0.3382 0.3394 ( 82264 PWs)   bands (ev):

   -18.3302 -18.1714 -18.1445 -18.1178 -18.0754 -18.0278 -17.9696 -17.9227
   -17.7463 -17.5455 -17.3854 -17.2703 -17.1860 -17.1557 -17.0820 -16.5291
    -6.6993  -6.6629  -6.6168  -6.5871  -6.5397  -6.4625  -6.4400  -6.3912
    -6.3404  -6.2746  -6.1797  -6.1239  -6.1085  -5.9075  -5.7789  -5.7052
    -5.5773  -5.5441  -5.4934  -5.4536  -5.4089  -5.3759  -5.2901  -5.1995
    -5.1596  -5.1472  -5.0937  -5.0597  -5.0272  -5.0006  -4.9809  -4.9030
    -4.8311  -4.7641  -4.7318  -4.6972  -4.6789  -4.6673  -4.6382  -4.6042
    -4.5918  -4.5678  -4.5529  -4.5290  -4.5093  -4.4871  -4.4508  -4.4426
    -4.4221  -4.4011  -4.3707  -4.3632  -4.3480  -4.2915  -4.2714  -4.2473
    -4.2174  -4.2068  -4.1513  -4.1178  -4.0680  -4.0043  -3.9834  -3.9438
    -3.9125  -3.8802  -3.7941  -3.7737  -3.7496  -3.6873  -3.6391  -3.6012
    -3.5143  -3.4701  -3.4031  -3.3401  -3.3115  -3.2732  -3.1893  -3.1751
    -3.1398  -3.0732  -3.0488  -3.0307  -2.9983  -2.9660  -2.9273  -2.8706
    -2.8310  -2.7593  -2.7203  -2.6537  -2.6023  -2.5788  -2.5373  -2.4530
    -2.4250  -2.3820  -2.2543  -2.1252  -2.0695  -2.0067  -1.9026  -1.8579
    -1.8109  -1.7766  -1.7420  -1.5644  -1.5498  -1.2377  -0.8979  -0.4323
    -0.3392  -0.0618   0.1885   0.4428   0.5535   0.6575   0.8251   0.9244
     1.0994   1.2186   1.3418   1.6024   1.6906   1.7564   1.9781   2.1047
     2.9250   4.4958   4.6296   4.7463   4.8548   4.9488   5.0065   5.0687
     5.2487   5.4160   5.6301   5.6989   5.8034   5.8786   6.0008   6.1483
     6.6719   7.0376   7.2025

          k =-0.3105 0.2255 0.1576 ( 82223 PWs)   bands (ev):

   -18.4219 -18.3153 -18.2151 -18.1184 -18.0242 -17.9763 -17.9176 -17.7888
   -17.6782 -17.5279 -17.3876 -17.2814 -17.1974 -17.1243 -17.1077 -16.5503
    -6.9989  -6.8127  -6.6153  -6.6083  -6.5683  -6.4532  -6.4067  -6.3826
    -6.3172  -6.2511  -6.1802  -6.1135  -6.0168  -5.8341  -5.7423  -5.6504
    -5.5782  -5.5175  -5.4955  -5.4307  -5.3787  -5.3316  -5.2450  -5.2148
    -5.1610  -5.1211  -5.0909  -5.0305  -5.0158  -4.9893  -4.9533  -4.9072
    -4.8831  -4.8431  -4.7928  -4.7322  -4.6977  -4.6703  -4.6215  -4.6156
    -4.5909  -4.5471  -4.5399  -4.5281  -4.5173  -4.4909  -4.4754  -4.4556
    -4.4413  -4.3976  -4.3812  -4.3673  -4.3498  -4.3183  -4.2913  -4.2570
    -4.2195  -4.1765  -4.1410  -4.1250  -4.0359  -4.0000  -3.9741  -3.9500
    -3.9163  -3.8540  -3.8054  -3.7220  -3.6950  -3.6568  -3.6238  -3.5984
    -3.5010  -3.4772  -3.4258  -3.3695  -3.2901  -3.2357  -3.2126  -3.1880
    -3.1220  -3.0611  -3.0498  -3.0100  -2.9700  -2.9570  -2.8996  -2.8832
    -2.7924  -2.7547  -2.6942  -2.6613  -2.6025  -2.5734  -2.5462  -2.4994
    -2.4002  -2.3653  -2.2736  -2.1759  -2.0962  -2.0454  -1.9492  -1.9182
    -1.8704  -1.8281  -1.7308  -1.5726  -1.5679  -1.1583  -0.8585  -0.5271
    -0.2903   0.0623   0.2689   0.4475   0.5879   0.7655   0.9011   0.9414
     1.0434   1.3010   1.3961   1.5383   1.6309   1.7563   1.9075   2.0210
     2.9059   4.4328   4.5264   4.6372   4.7746   4.8434   4.9181   5.1434
     5.3385   5.5662   5.6810   5.7523   5.8681   5.9258   6.0252   6.1413
     6.5540   6.8014   7.1663

          k =-0.2757 0.1127 0.1939 ( 82174 PWs)   bands (ev):

   -18.5473 -18.4408 -18.3093 -18.1734 -18.0005 -17.8770 -17.8059 -17.6110
   -17.5605 -17.5002 -17.4023 -17.3240 -17.2331 -17.1363 -17.1083 -16.5338
    -7.3015  -7.1054  -6.8438  -6.6094  -6.5632  -6.5222  -6.3651  -6.3082
    -6.2727  -6.1067  -6.0507  -5.9810  -5.8804  -5.7227  -5.6902  -5.6502
    -5.5754  -5.5435  -5.5101  -5.4511  -5.4258  -5.3859  -5.2732  -5.2366
    -5.2044  -5.1725  -5.0868  -5.0392  -5.0307  -4.9895  -4.9580  -4.9142
    -4.8673  -4.8185  -4.7877  -4.7543  -4.7037  -4.6678  -4.6413  -4.6327
    -4.6144  -4.5832  -4.5640  -4.5584  -4.5296  -4.5101  -4.4878  -4.4588
    -4.4503  -4.4267  -4.4039  -4.3724  -4.3623  -4.3399  -4.2928  -4.2534
    -4.2299  -4.1810  -4.1265  -4.0904  -4.0081  -3.9449  -3.8909  -3.8616
    -3.8272  -3.7962  -3.7816  -3.7077  -3.6560  -3.6345  -3.5430  -3.5104
    -3.4693  -3.4325  -3.3999  -3.3800  -3.2951  -3.2814  -3.2248  -3.1903
    -3.1502  -3.0773  -3.0363  -3.0216  -2.9753  -2.9389  -2.8906  -2.8313
    -2.8000  -2.7794  -2.7574  -2.7001  -2.6555  -2.6157  -2.5667  -2.5121
    -2.4412  -2.3746  -2.2960  -2.2078  -2.1600  -2.0436  -1.9879  -1.9269
    -1.8291  -1.7777  -1.7456  -1.5182  -1.4782  -1.2485  -0.8738  -0.4525
    -0.2691   0.1882   0.4427   0.5829   0.7458   0.8194   0.9129   1.0186
     1.1908   1.2860   1.4152   1.5379   1.6287   1.6865   1.8245   1.8428
     2.6909   3.9066   4.3810   4.6170   4.7799   4.8681   4.9172   5.1302
     5.2032   5.6436   5.6933   5.8093   5.8322   6.0015   6.1617   6.3718
     6.4424   6.5624   6.9093

          k =-0.2410-0.0000 0.2303 ( 82209 PWs)   bands (ev):

   -18.5976 -18.4880 -18.3434 -18.1934 -18.0047 -17.8298 -17.7207 -17.6050
   -17.4856 -17.4317 -17.4124 -17.3904 -17.2571 -17.1783 -17.0863 -16.4983
    -7.4231  -7.2260  -6.9496  -6.6518  -6.5360  -6.5248  -6.3417  -6.2541
    -6.2385  -6.0461  -5.9162  -5.8881  -5.8326  -5.7390  -5.6604  -5.6177
    -5.5788  -5.5334  -5.5274  -5.4910  -5.4561  -5.4182  -5.4082  -5.2873
    -5.2537  -5.2175  -5.1620  -5.0952  -5.0500  -4.9858  -4.9413  -4.9216
    -4.8586  -4.8458  -4.7658  -4.7381  -4.6980  -4.6703  -4.6439  -4.6345
    -4.6221  -4.5949  -4.5578  -4.5462  -4.5315  -4.5134  -4.4808  -4.4633
    -4.4577  -4.4294  -4.4089  -4.3804  -4.3617  -4.3270  -4.2861  -4.2728
    -4.1896  -4.1477  -4.0995  -4.0510  -3.9802  -3.9334  -3.8708  -3.8181
    -3.7852  -3.7574  -3.7000  -3.6709  -3.6506  -3.6103  -3.5852  -3.5321
    -3.5003  -3.4540  -3.3682  -3.3472  -3.2900  -3.2627  -3.2052  -3.1720
    -3.1130  -3.0784  -3.0561  -3.0257  -2.9857  -2.9550  -2.9384  -2.9026
    -2.8706  -2.8018  -2.7824  -2.7131  -2.6668  -2.6069  -2.5895  -2.5462
    -2.4458  -2.3674  -2.2929  -2.2010  -2.1552  -2.0976  -1.9578  -1.8908
    -1.8136  -1.7400  -1.6648  -1.4512  -1.4025  -1.3284  -0.9040  -0.3625
    -0.3187   0.2082   0.4954   0.7408   0.8071   0.9472   1.0232   1.0842
     1.1734   1.1917   1.3234   1.5083   1.6103   1.7237   1.8052   1.8341
     2.5098   3.6630   4.2171   4.6369   4.7435   4.8376   4.9812   5.0639
     5.2657   5.4788   5.6833   5.7878   5.8725   6.0386   6.2704   6.3254
     6.4804   6.6228   6.7977

          k = 0.3094 0.1691-0.4000 ( 82202 PWs)   bands (ev):

   -18.3888 -18.2439 -18.2056 -18.1484 -18.0791 -17.9847 -17.9312 -17.7205
   -17.5682 -17.4930 -17.4154 -17.3296 -17.2236 -17.2153 -17.0675 -16.4839
    -6.9262  -6.8391  -6.7180  -6.6879  -6.5935  -6.5410  -6.4394  -6.4172
    -6.4098  -6.3655  -6.1447  -6.0549  -5.9531  -5.8081  -5.7130  -5.6941
    -5.6450  -5.6118  -5.4710  -5.4057  -5.3650  -5.3447  -5.3084  -5.3026
    -5.2349  -5.2018  -5.1821  -5.1395  -5.1219  -5.0637  -4.9988  -4.9519
    -4.8072  -4.7732  -4.7055  -4.6983  -4.6775  -4.6575  -4.6045  -4.5947
    -4.5872  -4.5690  -4.5260  -4.5073  -4.4934  -4.4554  -4.4290  -4.4211
    -4.3999  -4.3687  -4.3596  -4.3558  -4.3280  -4.2770  -4.2583  -4.2339
    -4.1740  -4.1520  -4.1004  -4.0694  -4.0317  -3.9939  -3.9794  -3.9329
    -3.9164  -3.9022  -3.8475  -3.7954  -3.7329  -3.7126  -3.6560  -3.6039
    -3.5386  -3.5187  -3.4551  -3.4167  -3.3125  -3.2368  -3.2085  -3.1952
    -3.1503  -3.0924  -3.0869  -3.0418  -2.9806  -2.9345  -2.9023  -2.8933
    -2.7858  -2.7552  -2.7231  -2.6469  -2.6201  -2.5561  -2.4887  -2.4838
    -2.3689  -2.3530  -2.2737  -2.2165  -2.1563  -2.1361  -2.1033  -2.0006
    -1.9801  -1.7411  -1.6215  -1.5223  -1.3117  -1.2511  -1.0115  -0.3974
    -0.2650   0.0497   0.3268   0.7112   0.7480   0.8628   0.9060   1.1477
     1.2407   1.3545   1.4632   1.5255   1.6224   1.7549   1.7730   1.8094
     3.0214   4.3495   4.6849   4.8804   4.9152   4.9670   5.0763   5.1507
     5.3002   5.7152   5.7913   5.8377   5.8584   6.0787   6.3149   6.3872
     6.6999   7.3686   7.3861

          k = 0.3441 0.0564-0.3636 ( 82160 PWs)   bands (ev):

   -18.3878 -18.2525 -18.2016 -18.1541 -18.0806 -17.9765 -17.8844 -17.7674
   -17.6010 -17.4766 -17.3948 -17.3248 -17.2164 -17.2022 -17.0812 -16.5005
    -6.9158  -6.8443  -6.7434  -6.6704  -6.6361  -6.5918  -6.4769  -6.3934
    -6.3801  -6.2645  -6.1152  -6.0583  -5.9029  -5.8140  -5.7137  -5.6765
    -5.6511  -5.5419  -5.4754  -5.4476  -5.4184  -5.3720  -5.3100  -5.2906
    -5.2775  -5.2246  -5.1712  -5.1401  -5.0910  -5.0477  -4.9664  -4.9066
    -4.8567  -4.8112  -4.7526  -4.7163  -4.7026  -4.6753  -4.6318  -4.6168
    -4.5752  -4.5593  -4.5387  -4.5119  -4.5036  -4.4658  -4.4451  -4.4240
    -4.3935  -4.3779  -4.3622  -4.3395  -4.3089  -4.2833  -4.2629  -4.2200
    -4.1933  -4.1721  -4.1213  -4.0850  -3.9965  -3.9786  -3.9358  -3.8710
    -3.8485  -3.8314  -3.7973  -3.7551  -3.7189  -3.6949  -3.6654  -3.6207
    -3.5737  -3.5079  -3.4422  -3.4197  -3.3236  -3.3011  -3.2088  -3.1703
    -3.1213  -3.0883  -3.0755  -3.0340  -2.9971  -2.9531  -2.9259  -2.8722
    -2.8326  -2.7756  -2.7450  -2.6513  -2.6059  -2.5826  -2.4977  -2.4809
    -2.4274  -2.3421  -2.3021  -2.2124  -2.1642  -2.1314  -2.0667  -1.9958
    -1.8894  -1.7706  -1.6377  -1.5115  -1.3692  -1.2917  -0.9576  -0.3544
    -0.3247   0.0438   0.3236   0.6552   0.7651   0.8473   1.0170   1.0801
     1.1644   1.2641   1.3985   1.5504   1.6897   1.7415   1.8341   1.8982
     3.0459   4.4783   4.6411   4.7087   4.8433   5.0455   5.1401   5.2506
     5.3360   5.6579   5.7305   5.8674   5.9736   6.0353   6.2834   6.4530
     6.7283   7.2826   7.4377

          k = 0.3789-0.0564-0.3273 ( 82160 PWs)   bands (ev):

   -18.3773 -18.2463 -18.2012 -18.1660 -18.0838 -17.9819 -17.9236 -17.7142
   -17.6040 -17.4833 -17.3891 -17.3176 -17.2204 -17.1543 -17.1106 -16.5376
    -6.9044  -6.8375  -6.7409  -6.6725  -6.6241  -6.5896  -6.4682  -6.4177
    -6.3582  -6.2830  -6.1569  -6.0652  -6.0044  -5.7400  -5.6907  -5.6575
    -5.6041  -5.4889  -5.4840  -5.4462  -5.4143  -5.3652  -5.3307  -5.2795
    -5.2335  -5.1930  -5.1602  -5.1128  -5.0690  -5.0222  -4.9814  -4.9165
    -4.8883  -4.8331  -4.8141  -4.7285  -4.7178  -4.6853  -4.6339  -4.6192
    -4.6003  -4.5630  -4.5417  -4.5124  -4.4966  -4.4733  -4.4430  -4.4113
    -4.3986  -4.3793  -4.3705  -4.3449  -4.3339  -4.2767  -4.2608  -4.2378
    -4.2048  -4.1676  -4.1379  -4.0892  -4.0219  -3.9913  -3.9126  -3.8976
    -3.8476  -3.8050  -3.7858  -3.7399  -3.7082  -3.6850  -3.6228  -3.5974
    -3.5420  -3.5075  -3.4293  -3.4107  -3.2728  -3.2475  -3.1938  -3.1700
    -3.1234  -3.0885  -3.0690  -3.0455  -3.0136  -2.9813  -2.9348  -2.8951
    -2.8368  -2.7713  -2.7178  -2.6886  -2.6227  -2.5682  -2.5294  -2.4970
    -2.4273  -2.3791  -2.2745  -2.2522  -2.1275  -2.1068  -2.0679  -1.9970
    -1.8888  -1.8083  -1.7316  -1.4803  -1.4676  -1.2738  -0.8563  -0.4582
    -0.2993   0.0916   0.3915   0.6413   0.7452   0.8360   0.9611   1.0727
     1.1102   1.2580   1.3914   1.5263   1.7022   1.7313   1.8492   1.9093
     3.0973   4.4641   4.6752   4.7586   4.8653   5.0132   5.1146   5.3400
     5.4506   5.5880   5.7574   5.8741   5.9829   6.1004   6.2365   6.4368
     6.7856   7.2917   7.4247

          k = 0.2051 0.5073-0.5091 ( 82202 PWs)   bands (ev):

   -18.3668 -18.2261 -18.2054 -18.1778 -18.0853 -18.0008 -17.9721 -17.6302
   -17.5874 -17.5099 -17.4028 -17.3156 -17.2241 -17.1276 -17.1257 -16.5586
    -6.9055  -6.8247  -6.7203  -6.6656  -6.5800  -6.5361  -6.4581  -6.4164
    -6.3814  -6.3440  -6.3105  -6.0701  -6.0245  -5.7681  -5.7247  -5.6553
    -5.5715  -5.4906  -5.4554  -5.4067  -5.3453  -5.3121  -5.2780  -5.2608
    -5.2138  -5.1954  -5.1839  -5.1079  -5.0691  -4.9875  -4.9824  -4.9345
    -4.8529  -4.8294  -4.7926  -4.7740  -4.7402  -4.6472  -4.6304  -4.6126
    -4.5946  -4.5688  -4.5379  -4.5255  -4.5023  -4.4683  -4.4486  -4.4323
    -4.4068  -4.3759  -4.3554  -4.3431  -4.3213  -4.3003  -4.2836  -4.2747
    -4.2058  -4.1447  -4.1326  -4.0997  -4.0344  -4.0021  -3.9786  -3.9418
    -3.8984  -3.8493  -3.8057  -3.7512  -3.7106  -3.6550  -3.6394  -3.5872
    -3.5137  -3.4360  -3.3989  -3.3534  -3.3120  -3.2564  -3.2060  -3.1959
    -3.1321  -3.0780  -3.0509  -3.0414  -2.9886  -2.9361  -2.9190  -2.8633
    -2.8143  -2.7748  -2.7526  -2.6525  -2.6119  -2.5672  -2.5291  -2.4907
    -2.4311  -2.3550  -2.2952  -2.2693  -2.1838  -2.1214  -2.0608  -2.0037
    -1.9416  -1.9045  -1.6798  -1.5058  -1.4923  -1.1957  -0.8094  -0.5460
    -0.2911   0.1435   0.5211   0.6406   0.7111   0.8228   0.9023   0.9422
     1.1976   1.3183   1.4529   1.5607   1.5833   1.7405   1.8064   1.8449
     3.1264   4.3532   4.7530   4.8787   4.9266   5.0047   5.0806   5.2847
     5.4480   5.6593   5.8008   5.8401   5.9672   6.1411   6.2285   6.3793
     6.8295   7.2477   7.5514

     the Fermi energy is     0.0020 ev

!    total energy              =   -4073.77768111 Ry
     total all-electron energy =    -55365.404217 Ry
     estimated scf accuracy    <          8.2E-09 Ry
     smearing contrib. (-TS)   =       0.00478782 Ry
     internal energy E=F+TS    =   -4073.78246893 Ry

     The total energy is F=E-TS. E is the sum of the following terms:
     one-electron contribution =  -47753.54124565 Ry
     hartree contribution      =   24109.40722257 Ry
     xc contribution           =    -831.72076478 Ry
     ewald contribution        =   21991.00175148 Ry
     Hubbard energy            =       1.00861468 Ry
     one-center paw contrib.   =   -1589.93804724 Ry

     total magnetization       =    13.41 Bohr mag/cell
     absolute magnetization    =    13.84 Bohr mag/cell

     convergence has been achieved in  48 iterations

     Writing all to output data dir ./tmp/CuO_slab.save/ :
     XML data file, charge density, pseudopotentials, collected wavefunctions
 
     init_run     :    813.76s CPU    826.62s WALL (       1 calls)
     electrons    :  66873.96s CPU  67656.23s WALL (       1 calls)

     Called by init_run:
     wfcinit      :    779.24s CPU    790.02s WALL (       1 calls)
     potinit      :      9.35s CPU      9.88s WALL (       1 calls)
     hinit0       :      3.66s CPU      3.78s WALL (       1 calls)

     Called by electrons:
     c_bands      :  53412.68s CPU  54016.59s WALL (      48 calls)
     sum_band     :  12015.99s CPU  12117.54s WALL (      48 calls)
     v_of_rho     :    199.58s CPU    210.05s WALL (      49 calls)
     newd         :    966.92s CPU   1033.29s WALL (      49 calls)
     PAW_pot      :    230.53s CPU    231.13s WALL (      49 calls)
     mix_rho      :     58.58s CPU     59.10s WALL (      48 calls)

     Called by c_bands:
     init_us_2    :   1145.63s CPU   1150.02s WALL (    3920 calls)
     cegterg      :  50010.11s CPU  50603.41s WALL (    1920 calls)

     Called by *egterg:
     cdiaghg      :    183.49s CPU    184.18s WALL (    7449 calls)
     h_psi        :  37429.21s CPU  37686.61s WALL (    7489 calls)
     s_psi        :   3214.08s CPU   3224.37s WALL (    7529 calls)
     g_psi        :    122.16s CPU    122.61s WALL (    5529 calls)

     Called by h_psi:
     h_psi:calbec :   3130.70s CPU   3142.04s WALL (    7489 calls)
     vloc_psi     :  25832.39s CPU  25907.25s WALL (    7489 calls)
     add_vuspsi   :   3179.81s CPU   3190.35s WALL (    7489 calls)
     vhpsi        :   5093.47s CPU   5110.07s WALL (    7489 calls)

     General routines
     calbec       :   5553.51s CPU   5573.29s WALL (   18858 calls)
     fft          :     61.37s CPU     61.60s WALL (    1219 calls)
     ffts         :      2.68s CPU      2.69s WALL (     194 calls)
     fftw         :  19734.05s CPU  19788.58s WALL ( 1617972 calls)
     interpolate  :     10.29s CPU     10.39s WALL (      98 calls)
 
     Parallel routines

     Hubbard U routines
     new_ns       :    526.21s CPU    528.87s WALL (      48 calls)
     vhpsi        :   5093.47s CPU   5110.07s WALL (    7489 calls)
 
     PWSCF        :     18h48m CPU     19h 1m WALL

 
   This run was terminated on:   6:38:28  10Jan2026            

=------------------------------------------------------------------------------=
   JOB DONE.
=------------------------------------------------------------------------------=
