MPI startup(): PMI server not found. Please set I_MPI_PMI_LIBRARY variable if it is not a singleton case.

     Program PWSCF v.7.3.1 starts on 21Nov2025 at 13: 8:41 

     This program is part of the open-source Quantum ESPRESSO suite
     for quantum simulation of materials; please cite
         "P. Giannozzi et al., J. Phys.:Condens. Matter 21 395502 (2009);
         "P. Giannozzi et al., J. Phys.:Condens. Matter 29 465901 (2017);
         "P. Giannozzi et al., J. Chem. Phys. 152 154105 (2020);
          URL http://www.quantum-espresso.org", 
     in publications or presentations arising from this work. More details at
     http://www.quantum-espresso.org/quote

     Parallel version (MPI), running on     1 processors

     MPI processes distributed on     1 nodes
     159858 MiB available memory on the printing compute node when the environment starts
 
     Reading input from CuO_bulk_relax.in

     Current dimensions of program PWSCF are:
     Max number of different atomic species (ntypx) = 10
     Max number of k-points (npk) =  40000
     Max angular momentum in pseudopotentials (lmaxx) =  4
     file Cu.pbe-dn-kjpaw_psl.1.0.0.UPF: wavefunction(s)  4S 3D renormalized
     file O.pbe-n-kjpaw_psl.0.1.UPF: wavefunction(s)  2P renormalized
 
     Subspace diagonalization in iterative solution of the eigenvalue problem:
     a serial algorithm will be used

 
     G-vector sticks info
     --------------------
     sticks:   dense  smooth     PW     G-vecs:    dense   smooth      PW
     Sum        3273    1643    477               178785    63249    9875
 
     Using Slab Decomposition
 


     bravais-lattice index     =            0
     lattice parameter (alat)  =       8.8513  a.u.
     unit-cell volume          =     548.0283 (a.u.)^3
     number of atoms/cell      =            4
     number of atomic types    =            2
     number of electrons       =        34.00
     number of Kohn-Sham states=           21
     kinetic-energy cutoff     =      90.0000  Ry
     charge density cutoff     =     720.0000  Ry
     scf convergence threshold =      1.0E-08
     mixing beta               =       0.3000
     number of iterations used =            8  plain     mixing
     energy convergence thresh.=      1.0E-04
     force convergence thresh. =      1.0E-03
     press convergence thresh. =      5.0E-01
     Exchange-correlation= SLA  PW   PBX  PBC
                           (   1   4   3   4   0   0   0)
     nstep                     =           50


     celldm(1)=   8.851250  celldm(2)=   0.000000  celldm(3)=   0.000000
     celldm(4)=   0.000000  celldm(5)=   0.000000  celldm(6)=   0.000000

     crystal axes: (cart. coord. in units of alat)
               a(1) = (   1.000000   0.000000   0.000000 )  
               a(2) = (   0.000000   0.730736   0.000000 )  
               a(3) = (  -0.170933   0.000000   1.081505 )  

     reciprocal axes: (cart. coord. in units 2 pi/alat)
               b(1) = (  1.000000  0.000000  0.158051 )  
               b(2) = (  0.000000  1.368483  0.000000 )  
               b(3) = (  0.000000  0.000000  0.924637 )  


     PseudoPot. # 1 for Cu read from file:
     ./SSSP/Cu.pbe-dn-kjpaw_psl.1.0.0.UPF
     MD5 check sum: cfffd1f38ee05704b3e17f46f1730a6f
     Pseudo is Projector augmented-wave + core cor, Zval = 11.0
     Generated using &quot;atomic&quot; code by A. Dal Corso  v.6.3
     Shape of augmentation charge: PSQ
     Using radial grid of 1199 points,  6 beta functions with: 
                l(1) =   0
                l(2) =   0
                l(3) =   1
                l(4) =   1
                l(5) =   2
                l(6) =   2
     Q(r) pseudized with 0 coefficients 


     PseudoPot. # 2 for O  read from file:
     ./SSSP/O.pbe-n-kjpaw_psl.0.1.UPF
     MD5 check sum: 0234752ac141de4415c5fc33072bef88
     Pseudo is Projector augmented-wave + core cor, Zval =  6.0
     Generated using "atomic" code by A. Dal Corso  v.5.0.99 svn rev. 10869
     Shape of augmentation charge: BESSEL
     Using radial grid of 1095 points,  4 beta functions with: 
                l(1) =   0
                l(2) =   0
                l(3) =   1
                l(4) =   1
     Q(r) pseudized with 0 coefficients 


     atomic species   valence    mass     pseudopotential
     Cu               11.00    63.54600     Cu( 1.00)
     O                 6.00    15.99900     O ( 1.00)

     No symmetry found



   Cartesian axes

     site n.     atom                  positions (alat units)
         1        Cu     tau(   1) = (   0.2500000   0.1835762   0.0000000  )
         2        Cu     tau(   2) = (   0.6645335   0.5471598   0.5407525  )
         3        O      tau(   3) = (   0.9911280   0.3718511   0.0000000  )
         4        O      tau(   4) = (   0.4711387   0.3552313   0.2703763  )

     number of k points=   112  Methfessel-Paxton smearing, width (Ry)=  0.0200

     Number of k-points >= 100: set verbosity='high' to print them.

     Dense  grid:   178785 G-vectors     FFT dimensions: (  75,  60,  90)

     Smooth grid:    63249 G-vectors     FFT dimensions: (  54,  40,  60)

     Estimated max dynamical RAM per process >     956.06 MB

     Initial potential from superposition of free atoms

     starting charge      33.9995, renormalised to      34.0000
     Starting wfcs are   26 randomized atomic wfcs
     Checking if some PAW data can be deallocated... 

     total cpu time spent up to now is       11.8 secs

     Self-consistent Calculation

     iteration #  1     ecut=    90.00 Ry     beta= 0.30
     Davidson diagonalization with overlap
     ethr =  1.00E-02,  avg # of iterations =  2.0

     total cpu time spent up to now is       34.9 secs

     total energy              =    -508.29949522 Ry
     estimated scf accuracy    <       2.25780573 Ry

     iteration #  2     ecut=    90.00 Ry     beta= 0.30
     Davidson diagonalization with overlap
     ethr =  6.64E-03,  avg # of iterations =  2.0

     total cpu time spent up to now is       60.2 secs

     total energy              =    -508.71646951 Ry
     estimated scf accuracy    <       2.19076028 Ry

     iteration #  3     ecut=    90.00 Ry     beta= 0.30
     Davidson diagonalization with overlap
     ethr =  6.44E-03,  avg # of iterations =  1.0

     total cpu time spent up to now is       81.1 secs

     total energy              =    -508.91129076 Ry
     estimated scf accuracy    <       0.83802978 Ry

     iteration #  4     ecut=    90.00 Ry     beta= 0.30
     Davidson diagonalization with overlap
     ethr =  2.46E-03,  avg # of iterations =  1.0

     total cpu time spent up to now is      102.0 secs

     total energy              =    -508.97803680 Ry
     estimated scf accuracy    <       0.04831897 Ry

     iteration #  5     ecut=    90.00 Ry     beta= 0.30
     Davidson diagonalization with overlap
     ethr =  1.42E-04,  avg # of iterations =  2.0

     total cpu time spent up to now is      124.5 secs

     total energy              =    -508.98115211 Ry
     estimated scf accuracy    <       0.01523785 Ry

     iteration #  6     ecut=    90.00 Ry     beta= 0.30
     Davidson diagonalization with overlap
     ethr =  4.48E-05,  avg # of iterations =  1.9

     total cpu time spent up to now is      146.2 secs

     total energy              =    -508.98078957 Ry
     estimated scf accuracy    <       0.00535045 Ry

     iteration #  7     ecut=    90.00 Ry     beta= 0.30
     Davidson diagonalization with overlap
     ethr =  1.57E-05,  avg # of iterations =  3.1

     total cpu time spent up to now is      171.7 secs

     total energy              =    -508.98116525 Ry
     estimated scf accuracy    <       0.00584250 Ry

     iteration #  8     ecut=    90.00 Ry     beta= 0.30
     Davidson diagonalization with overlap
     ethr =  1.57E-05,  avg # of iterations =  1.2

     total cpu time spent up to now is      192.7 secs

     total energy              =    -508.98191120 Ry
     estimated scf accuracy    <       0.00012004 Ry

     iteration #  9     ecut=    90.00 Ry     beta= 0.30
     Davidson diagonalization with overlap
     ethr =  3.53E-07,  avg # of iterations =  4.4

     total cpu time spent up to now is      220.6 secs

     total energy              =    -508.98191159 Ry
     estimated scf accuracy    <       0.00011784 Ry

     iteration # 10     ecut=    90.00 Ry     beta= 0.30
     Davidson diagonalization with overlap
     ethr =  3.47E-07,  avg # of iterations =  1.0

     total cpu time spent up to now is      241.5 secs

     total energy              =    -508.98192634 Ry
     estimated scf accuracy    <       0.00000450 Ry

     iteration # 11     ecut=    90.00 Ry     beta= 0.30
     Davidson diagonalization with overlap
     ethr =  1.32E-08,  avg # of iterations =  2.4

     total cpu time spent up to now is      266.0 secs

     total energy              =    -508.98192742 Ry
     estimated scf accuracy    <       0.00000181 Ry

     iteration # 12     ecut=    90.00 Ry     beta= 0.30
     Davidson diagonalization with overlap
     ethr =  5.32E-09,  avg # of iterations =  2.0

     total cpu time spent up to now is      288.6 secs

     total energy              =    -508.98192769 Ry
     estimated scf accuracy    <       0.00000089 Ry

     iteration # 13     ecut=    90.00 Ry     beta= 0.30
     Davidson diagonalization with overlap
     ethr =  2.63E-09,  avg # of iterations =  1.0

     total cpu time spent up to now is      309.5 secs

     total energy              =    -508.98192775 Ry
     estimated scf accuracy    <       0.00000003 Ry

     iteration # 14     ecut=    90.00 Ry     beta= 0.30
     Davidson diagonalization with overlap
     ethr =  8.15E-11,  avg # of iterations =  3.8

     total cpu time spent up to now is      338.5 secs

     End of self-consistent calculation

     Number of k-points >= 100: set verbosity='high' to print the bands.

     the Fermi energy is     1.9827 ev

!    total energy              =    -508.98192776 Ry
     total all-electron energy =     -6920.435245 Ry
     estimated scf accuracy    <          7.1E-09 Ry
     smearing contrib. (-TS)   =       0.00175426 Ry
     internal energy E=F+TS    =    -508.98368202 Ry

     The total energy is F=E-TS. E is the sum of the following terms:
     one-electron contribution =    -189.74145209 Ry
     hartree contribution      =     126.34249271 Ry
     xc contribution           =    -103.60825917 Ry
     ewald contribution        =    -143.23281063 Ry
     one-center paw contrib.   =    -198.74365285 Ry

     convergence has been achieved in  14 iterations

     Forces acting on atoms (cartesian axes, Ry/au):

     atom    1 type  1   force =     0.30990366   -0.21008210    0.05200190
     atom    2 type  1   force =    -0.00305881   -0.00964542    0.00769272
     atom    3 type  2   force =    -0.32369757    0.23830281   -0.05326975
     atom    4 type  2   force =     0.01685272   -0.01857530   -0.00642487

     Total force =     0.555083     Total SCF correction =     0.000112


     Computing stress (Cartesian axis) and pressure

          total   stress  (Ry/bohr**3)                   (kbar)     P=       37.22
   0.00123103  -0.00098811  -0.00013081          181.09     -145.36      -19.24
  -0.00098811   0.00019212  -0.00001491         -145.36       28.26       -2.19
  -0.00013081  -0.00001491  -0.00066409          -19.24       -2.19      -97.69


     BFGS Geometry Optimization
     Energy error            =      0.0E+00 Ry
     Gradient error          =      3.2E-01 Ry/Bohr
     Cell gradient error     =      1.8E+02 kbar

     number of scf cycles    =   1
     number of bfgs steps    =   0

     enthalpy           new  =    -508.9819277576 Ry

     new trust radius        =       0.4054701138 bohr
     new conv_thr            =       0.0000000100 Ry

     new unit-cell volume =    557.84905 a.u.^3 (    82.66470 Ang^3 )
     density =      3.19574 g/cm^3

CELL_PARAMETERS (angstrom)
   4.828029806  -0.115704743  -0.015317868
  -0.084549628   3.439118979  -0.001275718
  -0.841836322   0.017889678   4.984157779

ATOMIC_POSITIONS (crystal)
Cu               0.2859409803        0.2187404125        0.0054323286
Cu               0.7497917849        0.7472877317        0.5008036129
O                0.9536059665        0.5457157647       -0.0055647736
O                0.5156612683        0.4832560911        0.2493288322



     Writing config-only to output data dir ./tmp/CuO_relax.save/ :
     XML data file
     NEW-OLD atomic charge density approx. for the potential

     negative rho (up, down):  4.734E-07 0.000E+00

     total cpu time spent up to now is      356.4 secs

     Self-consistent Calculation

     iteration #  1     ecut=    90.00 Ry     beta= 0.30
     Davidson diagonalization with overlap
     c_bands:  1 eigenvalues not converged
     c_bands:  1 eigenvalues not converged
     c_bands:  1 eigenvalues not converged
     ethr =  1.00E-06,  avg # of iterations = 12.8

     total cpu time spent up to now is      441.2 secs

     total energy              =    -508.85297242 Ry
     estimated scf accuracy    <       0.63970283 Ry

     iteration #  2     ecut=    90.00 Ry     beta= 0.30
     Davidson diagonalization with overlap
     ethr =  1.88E-03,  avg # of iterations =  2.0

     total cpu time spent up to now is      467.0 secs

     total energy              =    -509.01067425 Ry
     estimated scf accuracy    <       2.19896687 Ry

     iteration #  3     ecut=    90.00 Ry     beta= 0.30
     Davidson diagonalization with overlap
     ethr =  1.88E-03,  avg # of iterations =  1.0

     total cpu time spent up to now is      487.8 secs

     total energy              =    -509.11309895 Ry
     estimated scf accuracy    <       0.24284403 Ry

     iteration #  4     ecut=    90.00 Ry     beta= 0.30
     Davidson diagonalization with overlap
     ethr =  7.14E-04,  avg # of iterations =  1.0

     total cpu time spent up to now is      508.6 secs

     total energy              =    -509.08647046 Ry
     estimated scf accuracy    <       0.13683288 Ry

     iteration #  5     ecut=    90.00 Ry     beta= 0.30
     Davidson diagonalization with overlap
     ethr =  4.02E-04,  avg # of iterations =  1.0

     total cpu time spent up to now is      529.5 secs

     total energy              =    -509.04435237 Ry
     estimated scf accuracy    <       0.06989510 Ry

     iteration #  6     ecut=    90.00 Ry     beta= 0.30
     Davidson diagonalization with overlap
     ethr =  2.06E-04,  avg # of iterations =  1.2

     total cpu time spent up to now is      550.6 secs

     total energy              =    -509.03629460 Ry
     estimated scf accuracy    <       0.17548524 Ry

     iteration #  7     ecut=    90.00 Ry     beta= 0.30
     Davidson diagonalization with overlap
     ethr =  2.06E-04,  avg # of iterations =  1.0

     total cpu time spent up to now is      571.4 secs

     total energy              =    -509.04693563 Ry
     estimated scf accuracy    <       0.01769579 Ry

     iteration #  8     ecut=    90.00 Ry     beta= 0.30
     Davidson diagonalization with overlap
     ethr =  5.20E-05,  avg # of iterations =  1.0

     total cpu time spent up to now is      592.2 secs

     total energy              =    -509.04692924 Ry
     estimated scf accuracy    <       0.00027011 Ry

     iteration #  9     ecut=    90.00 Ry     beta= 0.30
     Davidson diagonalization with overlap
     ethr =  7.94E-07,  avg # of iterations =  3.9

     total cpu time spent up to now is      621.2 secs

     total energy              =    -509.04691126 Ry
     estimated scf accuracy    <       0.00096204 Ry

     iteration # 10     ecut=    90.00 Ry     beta= 0.30
     Davidson diagonalization with overlap
     ethr =  7.94E-07,  avg # of iterations =  2.0

     total cpu time spent up to now is      643.5 secs

     total energy              =    -509.04688375 Ry
     estimated scf accuracy    <       0.00058230 Ry

     iteration # 11     ecut=    90.00 Ry     beta= 0.30
     Davidson diagonalization with overlap
     ethr =  7.94E-07,  avg # of iterations =  1.0

     total cpu time spent up to now is      664.4 secs

     total energy              =    -509.04694329 Ry
     estimated scf accuracy    <       0.00006299 Ry

     iteration # 12     ecut=    90.00 Ry     beta= 0.30
     Davidson diagonalization with overlap
     ethr =  1.85E-07,  avg # of iterations =  1.0

     total cpu time spent up to now is      685.2 secs

     total energy              =    -509.04694081 Ry
     estimated scf accuracy    <       0.00004733 Ry

     iteration # 13     ecut=    90.00 Ry     beta= 0.30
     Davidson diagonalization with overlap
     ethr =  1.39E-07,  avg # of iterations =  1.0

     total cpu time spent up to now is      706.0 secs

     total energy              =    -509.04694232 Ry
     estimated scf accuracy    <       0.00000397 Ry

     iteration # 14     ecut=    90.00 Ry     beta= 0.30
     Davidson diagonalization with overlap
     ethr =  1.17E-08,  avg # of iterations =  1.6

     total cpu time spent up to now is      727.5 secs

     total energy              =    -509.04694241 Ry
     estimated scf accuracy    <       0.00000069 Ry

     iteration # 15     ecut=    90.00 Ry     beta= 0.30
     Davidson diagonalization with overlap
     ethr =  2.04E-09,  avg # of iterations =  2.0

     total cpu time spent up to now is      749.5 secs

     total energy              =    -509.04694249 Ry
     estimated scf accuracy    <       0.00000002 Ry

     iteration # 16     ecut=    90.00 Ry     beta= 0.30
     Davidson diagonalization with overlap
     ethr =  4.86E-11,  avg # of iterations =  4.9

     total cpu time spent up to now is      783.7 secs

     End of self-consistent calculation

     Number of k-points >= 100: set verbosity='high' to print the bands.

     the Fermi energy is     1.6083 ev

!    total energy              =    -509.04694251 Ry
     total all-electron energy =     -6920.500259 Ry
     estimated scf accuracy    <          1.7E-09 Ry
     smearing contrib. (-TS)   =       0.00044539 Ry
     internal energy E=F+TS    =    -509.04738790 Ry

     The total energy is F=E-TS. E is the sum of the following terms:
     one-electron contribution =    -181.75422228 Ry
     hartree contribution      =     122.43478553 Ry
     xc contribution           =    -103.41037592 Ry
     ewald contribution        =    -147.60061881 Ry
     one-center paw contrib.   =    -198.71695642 Ry

     convergence has been achieved in  16 iterations

     Forces acting on atoms (cartesian axes, Ry/au):

     atom    1 type  1   force =    -0.09623570    0.01081157    0.00860052
     atom    2 type  1   force =     0.00956008   -0.01360014    0.03316907
     atom    3 type  2   force =     0.05806030   -0.00382021   -0.05871344
     atom    4 type  2   force =     0.02861532    0.00660878    0.01694385

     Total force =     0.137154     Total SCF correction =     0.000104


     Computing stress (Cartesian axis) and pressure

          total   stress  (Ry/bohr**3)                   (kbar)     P=      -84.86
  -0.00045064   0.00017937  -0.00000170          -66.29       26.39       -0.25
   0.00017937  -0.00063487   0.00014378           26.39      -93.39       21.15
  -0.00000170   0.00014378  -0.00064503           -0.25       21.15      -94.89

     Energy error            =      6.5E-02 Ry
     Gradient error          =      9.6E-02 Ry/Bohr
     Cell gradient error     =      9.5E+01 kbar

     number of scf cycles    =   2
     number of bfgs steps    =   1

     enthalpy           old  =    -508.9819277576 Ry
     enthalpy           new  =    -509.0469425094 Ry

     CASE: enthalpy          _new < enthalpy          _old

     new trust radius        =       0.0748810563 bohr
     new conv_thr            =       0.0000000096 Ry

     new unit-cell volume =    537.70055 a.u.^3 (    79.67900 Ang^3 )
     density =      3.31549 g/cm^3

CELL_PARAMETERS (angstrom)
   4.791239361  -0.105530864  -0.016172532
  -0.076481874   3.392829533   0.009387736
  -0.836783145   0.032339487   4.906852891

ATOMIC_POSITIONS (crystal)
Cu               0.2783116277        0.2187601861        0.0065144158
Cu               0.7512651280        0.7453519380        0.5037837024
O                0.9565574207        0.5469956330       -0.0110836948
O                0.5188658237        0.4838922428        0.2507855766



     Writing config-only to output data dir ./tmp/CuO_relax.save/ :
     XML data file
     NEW-OLD atomic charge density approx. for the potential

     total cpu time spent up to now is      801.5 secs

     Self-consistent Calculation

     iteration #  1     ecut=    90.00 Ry     beta= 0.30
     Davidson diagonalization with overlap
     c_bands:  1 eigenvalues not converged
     ethr =  1.00E-06,  avg # of iterations = 10.7

     total cpu time spent up to now is      877.2 secs

     total energy              =    -509.07376415 Ry
     estimated scf accuracy    <       0.00143436 Ry

     iteration #  2     ecut=    90.00 Ry     beta= 0.30
     Davidson diagonalization with overlap
     ethr =  4.22E-06,  avg # of iterations =  2.0

     total cpu time spent up to now is      900.5 secs

     total energy              =    -509.07364248 Ry
     estimated scf accuracy    <       0.00167459 Ry

     iteration #  3     ecut=    90.00 Ry     beta= 0.30
     Davidson diagonalization with overlap
     ethr =  4.22E-06,  avg # of iterations =  1.0

     total cpu time spent up to now is      921.4 secs

     total energy              =    -509.07355999 Ry
     estimated scf accuracy    <       0.00235693 Ry

     iteration #  4     ecut=    90.00 Ry     beta= 0.30
     Davidson diagonalization with overlap
     ethr =  4.22E-06,  avg # of iterations =  1.0

     total cpu time spent up to now is      942.3 secs

     total energy              =    -509.07358360 Ry
     estimated scf accuracy    <       0.00024959 Ry

     iteration #  5     ecut=    90.00 Ry     beta= 0.30
     Davidson diagonalization with overlap
     ethr =  7.34E-07,  avg # of iterations =  1.0

     total cpu time spent up to now is      963.2 secs

     total energy              =    -509.07352213 Ry
     estimated scf accuracy    <       0.00011814 Ry

     iteration #  6     ecut=    90.00 Ry     beta= 0.30
     Davidson diagonalization with overlap
     ethr =  3.47E-07,  avg # of iterations =  2.0

     total cpu time spent up to now is      985.8 secs

     total energy              =    -509.07353189 Ry
     estimated scf accuracy    <       0.00006391 Ry

     iteration #  7     ecut=    90.00 Ry     beta= 0.30
     Davidson diagonalization with overlap
     ethr =  1.88E-07,  avg # of iterations =  1.0

     total cpu time spent up to now is     1006.6 secs

     total energy              =    -509.07354088 Ry
     estimated scf accuracy    <       0.00000568 Ry

     iteration #  8     ecut=    90.00 Ry     beta= 0.30
     Davidson diagonalization with overlap
     ethr =  1.67E-08,  avg # of iterations =  4.0

     total cpu time spent up to now is     1035.5 secs

     total energy              =    -509.07354336 Ry
     estimated scf accuracy    <       0.00000151 Ry

     iteration #  9     ecut=    90.00 Ry     beta= 0.30
     Davidson diagonalization with overlap
     ethr =  4.46E-09,  avg # of iterations =  2.0

     total cpu time spent up to now is     1062.2 secs

     total energy              =    -509.07354370 Ry
     estimated scf accuracy    <       0.00000017 Ry

     iteration # 10     ecut=    90.00 Ry     beta= 0.30
     Davidson diagonalization with overlap
     ethr =  5.10E-10,  avg # of iterations =  2.4

     total cpu time spent up to now is     1085.2 secs

     total energy              =    -509.07354371 Ry
     estimated scf accuracy    <       0.00000002 Ry

     iteration # 11     ecut=    90.00 Ry     beta= 0.30
     Davidson diagonalization with overlap
     ethr =  6.03E-11,  avg # of iterations =  2.3

     total cpu time spent up to now is     1109.0 secs

     End of self-consistent calculation

     Number of k-points >= 100: set verbosity='high' to print the bands.

     the Fermi energy is     1.9066 ev

!    total energy              =    -509.07354371 Ry
     total all-electron energy =     -6920.526861 Ry
     estimated scf accuracy    <          2.9E-09 Ry
     smearing contrib. (-TS)   =       0.00063289 Ry
     internal energy E=F+TS    =    -509.07417660 Ry

     The total energy is F=E-TS. E is the sum of the following terms:
     one-electron contribution =    -178.53340080 Ry
     hartree contribution      =     121.11103064 Ry
     xc contribution           =    -103.44043183 Ry
     ewald contribution        =    -149.48947263 Ry
     one-center paw contrib.   =    -198.72190199 Ry

     convergence has been achieved in  11 iterations

     Forces acting on atoms (cartesian axes, Ry/au):

     atom    1 type  1   force =    -0.08393778    0.00693111    0.01230253
     atom    2 type  1   force =     0.01741727   -0.00781661    0.04904395
     atom    3 type  2   force =     0.04924993    0.00466740   -0.06314995
     atom    4 type  2   force =     0.01727058   -0.00378191    0.00180346

     Total force =     0.129483     Total SCF correction =     0.000115


     Computing stress (Cartesian axis) and pressure

          total   stress  (Ry/bohr**3)                   (kbar)     P=      -79.66
  -0.00035954   0.00015875  -0.00001064          -52.89       23.35       -1.56
   0.00015875  -0.00062437   0.00017421           23.35      -91.85       25.63
  -0.00001064   0.00017421  -0.00064059           -1.56       25.63      -94.23

     Energy error            =      2.7E-02 Ry
     Gradient error          =      8.4E-02 Ry/Bohr
     Cell gradient error     =      9.4E+01 kbar

     number of scf cycles    =   3
     number of bfgs steps    =   2

     enthalpy           old  =    -509.0469425094 Ry
     enthalpy           new  =    -509.0735437116 Ry

     CASE: enthalpy          _new < enthalpy          _old


     WARNING: bfgs curvature condition failed, Theta= 0.857
     new trust radius        =       0.1121472838 bohr
     new conv_thr            =       0.0000000084 Ry

     new unit-cell volume =    509.36979 a.u.^3 (    75.48082 Ang^3 )
     density =      3.49990 g/cm^3

CELL_PARAMETERS (angstrom)
   4.744052461  -0.091957504  -0.018180676
  -0.065514440   3.324193388   0.027405030
  -0.831450880   0.057396480   4.791662830

ATOMIC_POSITIONS (crystal)
Cu               0.2678883339        0.2183190528        0.0084188305
Cu               0.7543590937        0.7431113774        0.5094675511
O                0.9602189030        0.5498841518       -0.0197047681
O                0.5225336695        0.4836854181        0.2518183865



     Writing config-only to output data dir ./tmp/CuO_relax.save/ :
     XML data file
     NEW-OLD atomic charge density approx. for the potential

     total cpu time spent up to now is     1126.4 secs

     Self-consistent Calculation

     iteration #  1     ecut=    90.00 Ry     beta= 0.30
     Davidson diagonalization with overlap
     c_bands:  1 eigenvalues not converged
     c_bands:  1 eigenvalues not converged
     c_bands:  1 eigenvalues not converged
     ethr =  1.00E-06,  avg # of iterations = 12.6

     total cpu time spent up to now is     1214.7 secs

     total energy              =    -509.10964850 Ry
     estimated scf accuracy    <       0.00288726 Ry

     iteration #  2     ecut=    90.00 Ry     beta= 0.30
     Davidson diagonalization with overlap
     ethr =  8.49E-06,  avg # of iterations =  2.0

     total cpu time spent up to now is     1237.7 secs

     total energy              =    -509.10961443 Ry
     estimated scf accuracy    <       0.00198571 Ry

     iteration #  3     ecut=    90.00 Ry     beta= 0.30
     Davidson diagonalization with overlap
     ethr =  5.84E-06,  avg # of iterations =  1.0

     total cpu time spent up to now is     1258.5 secs

     total energy              =    -509.10952013 Ry
     estimated scf accuracy    <       0.00122739 Ry

     iteration #  4     ecut=    90.00 Ry     beta= 0.30
     Davidson diagonalization with overlap
     ethr =  3.61E-06,  avg # of iterations =  1.0

     total cpu time spent up to now is     1279.3 secs

     total energy              =    -509.10938092 Ry
     estimated scf accuracy    <       0.00124545 Ry

     iteration #  5     ecut=    90.00 Ry     beta= 0.30
     Davidson diagonalization with overlap
     ethr =  3.61E-06,  avg # of iterations =  1.0

     total cpu time spent up to now is     1300.2 secs

     total energy              =    -509.10936724 Ry
     estimated scf accuracy    <       0.00043005 Ry

     iteration #  6     ecut=    90.00 Ry     beta= 0.30
     Davidson diagonalization with overlap
     ethr =  1.26E-06,  avg # of iterations =  1.0

     total cpu time spent up to now is     1321.0 secs

     total energy              =    -509.10939324 Ry
     estimated scf accuracy    <       0.00011496 Ry

     iteration #  7     ecut=    90.00 Ry     beta= 0.30
     Davidson diagonalization with overlap
     ethr =  3.38E-07,  avg # of iterations =  2.1

     total cpu time spent up to now is     1343.2 secs

     total energy              =    -509.10941426 Ry
     estimated scf accuracy    <       0.00001207 Ry

     iteration #  8     ecut=    90.00 Ry     beta= 0.30
     Davidson diagonalization with overlap
     ethr =  3.55E-08,  avg # of iterations =  3.4

     total cpu time spent up to now is     1370.3 secs

     total energy              =    -509.10941840 Ry
     estimated scf accuracy    <       0.00000126 Ry

     iteration #  9     ecut=    90.00 Ry     beta= 0.30
     Davidson diagonalization with overlap
     ethr =  3.72E-09,  avg # of iterations =  2.8

     total cpu time spent up to now is     1396.2 secs

     total energy              =    -509.10941863 Ry
     estimated scf accuracy    <       0.00000029 Ry

     iteration # 10     ecut=    90.00 Ry     beta= 0.30
     Davidson diagonalization with overlap
     ethr =  8.52E-10,  avg # of iterations =  1.7

     total cpu time spent up to now is     1417.8 secs

     total energy              =    -509.10941866 Ry
     estimated scf accuracy    <       0.00000003 Ry

     iteration # 11     ecut=    90.00 Ry     beta= 0.30
     Davidson diagonalization with overlap
     ethr =  9.36E-11,  avg # of iterations =  2.9

     total cpu time spent up to now is     1443.2 secs

     End of self-consistent calculation

     Number of k-points >= 100: set verbosity='high' to print the bands.

     the Fermi energy is     2.3685 ev

!    total energy              =    -509.10941866 Ry
     total all-electron energy =     -6920.562736 Ry
     estimated scf accuracy    <          4.9E-09 Ry
     smearing contrib. (-TS)   =       0.00091586 Ry
     internal energy E=F+TS    =    -509.11033453 Ry

     The total energy is F=E-TS. E is the sum of the following terms:
     one-electron contribution =    -173.75755599 Ry
     hartree contribution      =     119.17027589 Ry
     xc contribution           =    -103.48973551 Ry
     ewald contribution        =    -152.30441262 Ry
     one-center paw contrib.   =    -198.72890630 Ry

     convergence has been achieved in  11 iterations

     Forces acting on atoms (cartesian axes, Ry/au):

     atom    1 type  1   force =    -0.05930279   -0.00857298    0.01441309
     atom    2 type  1   force =     0.02516664   -0.00347714    0.06708867
     atom    3 type  2   force =     0.02761426    0.02396801   -0.07047297
     atom    4 type  2   force =     0.00652189   -0.01191788   -0.01102879

     Total force =     0.124716     Total SCF correction =     0.000147


     Computing stress (Cartesian axis) and pressure

          total   stress  (Ry/bohr**3)                   (kbar)     P=      -68.51
  -0.00018857   0.00009148  -0.00002689          -27.74       13.46       -3.96
   0.00009148  -0.00057482   0.00021275           13.46      -84.56       31.30
  -0.00002689   0.00021275  -0.00063384           -3.96       31.30      -93.24

     Energy error            =      3.6E-02 Ry
     Gradient error          =      7.0E-02 Ry/Bohr
     Cell gradient error     =      9.3E+01 kbar

     number of scf cycles    =   4
     number of bfgs steps    =   3

     enthalpy           old  =    -509.0735437116 Ry
     enthalpy           new  =    -509.1094186638 Ry

     CASE: enthalpy          _new < enthalpy          _old

     new trust radius        =       0.1680742592 bohr
     new conv_thr            =       0.0000000070 Ry

     new unit-cell volume =    470.75435 a.u.^3 (    69.75860 Ang^3 )
     density =      3.78699 g/cm^3

CELL_PARAMETERS (angstrom)
   4.688562510  -0.077969315  -0.022598361
  -0.053749717   3.225160382   0.056866285
  -0.827660553   0.099773911   4.620025235

ATOMIC_POSITIONS (crystal)
Cu               0.2545039509        0.2154584076        0.0113295492
Cu               0.7598066111        0.7401425501        0.5192401951
O                0.9635370597        0.5566873407       -0.0331906441
O                0.5271523783        0.4827117015        0.2526208997



     Writing config-only to output data dir ./tmp/CuO_relax.save/ :
     XML data file
     NEW-OLD atomic charge density approx. for the potential

     total cpu time spent up to now is     1460.5 secs

     Self-consistent Calculation

     iteration #  1     ecut=    90.00 Ry     beta= 0.30
     Davidson diagonalization with overlap
     c_bands:  1 eigenvalues not converged
     c_bands:  1 eigenvalues not converged
     ethr =  1.00E-06,  avg # of iterations = 14.6

     total cpu time spent up to now is     1560.6 secs

     total energy              =    -509.15509419 Ry
     estimated scf accuracy    <       0.00568340 Ry

     iteration #  2     ecut=    90.00 Ry     beta= 0.30
     Davidson diagonalization with overlap
     ethr =  1.67E-05,  avg # of iterations =  2.0

     total cpu time spent up to now is     1583.5 secs

     total energy              =    -509.15521442 Ry
     estimated scf accuracy    <       0.00613295 Ry

     iteration #  3     ecut=    90.00 Ry     beta= 0.30
     Davidson diagonalization with overlap
     ethr =  1.67E-05,  avg # of iterations =  1.0

     total cpu time spent up to now is     1604.2 secs

     total energy              =    -509.15509535 Ry
     estimated scf accuracy    <       0.00321110 Ry

     iteration #  4     ecut=    90.00 Ry     beta= 0.30
     Davidson diagonalization with overlap
     ethr =  9.44E-06,  avg # of iterations =  1.0

     total cpu time spent up to now is     1625.0 secs

     total energy              =    -509.15497092 Ry
     estimated scf accuracy    <       0.00317727 Ry

     iteration #  5     ecut=    90.00 Ry     beta= 0.30
     Davidson diagonalization with overlap
     ethr =  9.34E-06,  avg # of iterations =  1.0

     total cpu time spent up to now is     1645.7 secs

     total energy              =    -509.15504333 Ry
     estimated scf accuracy    <       0.00024205 Ry

     iteration #  6     ecut=    90.00 Ry     beta= 0.30
     Davidson diagonalization with overlap
     ethr =  7.12E-07,  avg # of iterations =  2.1

     total cpu time spent up to now is     1671.0 secs

     total energy              =    -509.15509137 Ry
     estimated scf accuracy    <       0.00013694 Ry

     iteration #  7     ecut=    90.00 Ry     beta= 0.30
     Davidson diagonalization with overlap
     ethr =  4.03E-07,  avg # of iterations =  1.9

     total cpu time spent up to now is     1692.5 secs

     total energy              =    -509.15512388 Ry
     estimated scf accuracy    <       0.00002027 Ry

     iteration #  8     ecut=    90.00 Ry     beta= 0.30
     Davidson diagonalization with overlap
     ethr =  5.96E-08,  avg # of iterations =  2.6

     total cpu time spent up to now is     1718.6 secs

     total energy              =    -509.15513006 Ry
     estimated scf accuracy    <       0.00000258 Ry

     iteration #  9     ecut=    90.00 Ry     beta= 0.30
     Davidson diagonalization with overlap
     ethr =  7.58E-09,  avg # of iterations =  2.7

     total cpu time spent up to now is     1744.1 secs

     total energy              =    -509.15513070 Ry
     estimated scf accuracy    <       0.00000094 Ry

     iteration # 10     ecut=    90.00 Ry     beta= 0.30
     Davidson diagonalization with overlap
     ethr =  2.78E-09,  avg # of iterations =  1.5

     total cpu time spent up to now is     1765.7 secs

     total energy              =    -509.15513081 Ry
     estimated scf accuracy    <       0.00000005 Ry

     iteration # 11     ecut=    90.00 Ry     beta= 0.30
     Davidson diagonalization with overlap
     ethr =  1.49E-10,  avg # of iterations =  3.8

     total cpu time spent up to now is     1795.1 secs

     total energy              =    -509.15513083 Ry
     estimated scf accuracy    <          7.8E-09 Ry

     iteration # 12     ecut=    90.00 Ry     beta= 0.30
     Davidson diagonalization with overlap
     ethr =  2.29E-11,  avg # of iterations =  1.3

     total cpu time spent up to now is     1816.3 secs

     End of self-consistent calculation

     Number of k-points >= 100: set verbosity='high' to print the bands.

     the Fermi energy is     3.0835 ev

!    total energy              =    -509.15513083 Ry
     total all-electron energy =     -6920.608448 Ry
     estimated scf accuracy    <          2.4E-09 Ry
     smearing contrib. (-TS)   =       0.00138698 Ry
     internal energy E=F+TS    =    -509.15651780 Ry

     The total energy is F=E-TS. E is the sum of the following terms:
     one-electron contribution =    -166.76229118 Ry
     hartree contribution      =     116.37674876 Ry
     xc contribution           =    -103.56965478 Ry
     ewald contribution        =    -156.46259724 Ry
     one-center paw contrib.   =    -198.73872337 Ry

     convergence has been achieved in  12 iterations

     Forces acting on atoms (cartesian axes, Ry/au):

     atom    1 type  1   force =    -0.01301313   -0.04397207    0.01833796
     atom    2 type  1   force =     0.03280685   -0.00023035    0.08572015
     atom    3 type  2   force =    -0.01366460    0.06240628   -0.08117822
     atom    4 type  2   force =    -0.00612912   -0.01820386   -0.02287989

     Total force =     0.149757     Total SCF correction =     0.000112


     Computing stress (Cartesian axis) and pressure

          total   stress  (Ry/bohr**3)                   (kbar)     P=      -44.74
   0.00010262  -0.00006527  -0.00003457           15.10       -9.60       -5.09
  -0.00006527  -0.00042588   0.00024238           -9.60      -62.65       35.66
  -0.00003457   0.00024238  -0.00058906           -5.09       35.66      -86.65

     Energy error            =      4.6E-02 Ry
     Gradient error          =      8.6E-02 Ry/Bohr
     Cell gradient error     =      8.7E+01 kbar

     number of scf cycles    =   5
     number of bfgs steps    =   4

     enthalpy           old  =    -509.1094186638 Ry
     enthalpy           new  =    -509.1551308255 Ry

     CASE: enthalpy          _new < enthalpy          _old

     new trust radius        =       0.2525474412 bohr
     new conv_thr            =       0.0000000086 Ry

     new unit-cell volume =    418.51818 a.u.^3 (    62.01800 Ang^3 )
     density =      4.25965 g/cm^3

CELL_PARAMETERS (angstrom)
   4.621381208  -0.068410012  -0.028785760
  -0.045033685   3.083811377   0.101979943
  -0.823830052   0.166453345   4.362852461

ATOMIC_POSITIONS (crystal)
Cu               0.2375790886        0.2069578318        0.0158386207
Cu               0.7684125112        0.7355830733        0.5345983093
O                0.9652629337        0.5710604769       -0.0542594093
O                0.5337454665        0.4813986180        0.2538224792



     Writing config-only to output data dir ./tmp/CuO_relax.save/ :
     XML data file
     NEW-OLD atomic charge density approx. for the potential

     total cpu time spent up to now is     1833.7 secs

     Self-consistent Calculation

     iteration #  1     ecut=    90.00 Ry     beta= 0.30
     Davidson diagonalization with overlap
     c_bands:  1 eigenvalues not converged
     c_bands:  1 eigenvalues not converged
     c_bands:  1 eigenvalues not converged
     c_bands:  1 eigenvalues not converged
     c_bands:  1 eigenvalues not converged
     c_bands:  1 eigenvalues not converged
     c_bands:  1 eigenvalues not converged
     c_bands:  1 eigenvalues not converged
     c_bands:  1 eigenvalues not converged
     c_bands:  1 eigenvalues not converged
     c_bands:  1 eigenvalues not converged
     ethr =  1.00E-06,  avg # of iterations = 16.7

     total cpu time spent up to now is     1945.6 secs

     total energy              =    -509.20095951 Ry
     estimated scf accuracy    <       0.02059352 Ry

     iteration #  2     ecut=    90.00 Ry     beta= 0.30
     Davidson diagonalization with overlap
     ethr =  6.06E-05,  avg # of iterations =  2.0

     total cpu time spent up to now is     1969.9 secs

     total energy              =    -509.19967014 Ry
     estimated scf accuracy    <       0.11286437 Ry

     iteration #  3     ecut=    90.00 Ry     beta= 0.30
     Davidson diagonalization with overlap
     ethr =  6.06E-05,  avg # of iterations =  1.0

     total cpu time spent up to now is     1990.7 secs

     total energy              =    -509.20561077 Ry
     estimated scf accuracy    <       0.00623073 Ry

     iteration #  4     ecut=    90.00 Ry     beta= 0.30
     Davidson diagonalization with overlap
     ethr =  1.83E-05,  avg # of iterations =  1.0

     total cpu time spent up to now is     2011.4 secs

     total energy              =    -509.20472656 Ry
     estimated scf accuracy    <       0.00215251 Ry

     iteration #  5     ecut=    90.00 Ry     beta= 0.30
     Davidson diagonalization with overlap
     ethr =  6.33E-06,  avg # of iterations =  2.0

     total cpu time spent up to now is     2034.5 secs

     total energy              =    -509.20500330 Ry
     estimated scf accuracy    <       0.00019964 Ry

     iteration #  6     ecut=    90.00 Ry     beta= 0.30
     Davidson diagonalization with overlap
     ethr =  5.87E-07,  avg # of iterations =  2.3

     total cpu time spent up to now is     2060.3 secs

     total energy              =    -509.20506662 Ry
     estimated scf accuracy    <       0.00009090 Ry

     iteration #  7     ecut=    90.00 Ry     beta= 0.30
     Davidson diagonalization with overlap
     ethr =  2.67E-07,  avg # of iterations =  1.9

     total cpu time spent up to now is     2082.3 secs

     total energy              =    -509.20509356 Ry
     estimated scf accuracy    <       0.00004470 Ry

     iteration #  8     ecut=    90.00 Ry     beta= 0.30
     Davidson diagonalization with overlap
     ethr =  1.31E-07,  avg # of iterations =  2.0

     total cpu time spent up to now is     2105.0 secs

     total energy              =    -509.20510107 Ry
     estimated scf accuracy    <       0.00000351 Ry

     iteration #  9     ecut=    90.00 Ry     beta= 0.30
     Davidson diagonalization with overlap
     ethr =  1.03E-08,  avg # of iterations =  2.2

     total cpu time spent up to now is     2129.8 secs

     total energy              =    -509.20510183 Ry
     estimated scf accuracy    <       0.00000087 Ry

     iteration # 10     ecut=    90.00 Ry     beta= 0.30
     Davidson diagonalization with overlap
     ethr =  2.55E-09,  avg # of iterations =  2.0

     total cpu time spent up to now is     2152.2 secs

     total energy              =    -509.20510197 Ry
     estimated scf accuracy    <       0.00000007 Ry

     iteration # 11     ecut=    90.00 Ry     beta= 0.30
     Davidson diagonalization with overlap
     ethr =  2.04E-10,  avg # of iterations =  3.2

     total cpu time spent up to now is     2178.2 secs

     total energy              =    -509.20510199 Ry
     estimated scf accuracy    <       0.00000002 Ry

     iteration # 12     ecut=    90.00 Ry     beta= 0.30
     Davidson diagonalization with overlap
     ethr =  5.65E-11,  avg # of iterations =  1.5

     total cpu time spent up to now is     2199.8 secs

     End of self-consistent calculation

     Number of k-points >= 100: set verbosity='high' to print the bands.

     the Fermi energy is     4.2595 ev

!    total energy              =    -509.20510199 Ry
     total all-electron energy =     -6920.658419 Ry
     estimated scf accuracy    <          5.7E-10 Ry
     smearing contrib. (-TS)   =       0.00213712 Ry
     internal energy E=F+TS    =    -509.20723911 Ry

     The total energy is F=E-TS. E is the sum of the following terms:
     one-electron contribution =    -156.85952196 Ry
     hartree contribution      =     112.58743697 Ry
     xc contribution           =    -103.71636776 Ry
     ewald contribution        =    -162.46438237 Ry
     one-center paw contrib.   =    -198.75440400 Ry

     convergence has been achieved in  12 iterations

     Forces acting on atoms (cartesian axes, Ry/au):

     atom    1 type  1   force =     0.05826137   -0.10551084    0.03100902
     atom    2 type  1   force =     0.03416961    0.01351594    0.07941914
     atom    3 type  2   force =    -0.06431771    0.11865852   -0.06979608
     atom    4 type  2   force =    -0.02811327   -0.02666362   -0.04063208

     Total force =     0.222231     Total SCF correction =     0.000047


     Computing stress (Cartesian axis) and pressure

          total   stress  (Ry/bohr**3)                   (kbar)     P=       20.45
   0.00058076  -0.00034444   0.00011156           85.43      -50.67       16.41
  -0.00034444  -0.00000376   0.00019237          -50.67       -0.55       28.30
   0.00011156   0.00019237  -0.00015989           16.41       28.30      -23.52

     Energy error            =      5.0E-02 Ry
     Gradient error          =      1.2E-01 Ry/Bohr
     Cell gradient error     =      8.5E+01 kbar

     number of scf cycles    =   6
     number of bfgs steps    =   5

     enthalpy           old  =    -509.1551308255 Ry
     enthalpy           new  =    -509.2051019891 Ry

     CASE: enthalpy          _new < enthalpy          _old

     new trust radius        =       0.2816442930 bohr
     new conv_thr            =       0.0000000100 Ry

     new unit-cell volume =    366.08338 a.u.^3 (    54.24796 Ang^3 )
     density =      4.86977 g/cm^3

CELL_PARAMETERS (angstrom)
   4.565930865  -0.080031803  -0.011882896
  -0.054773662   2.926475409   0.155509336
  -0.791609932   0.248775664   4.075710123

ATOMIC_POSITIONS (crystal)
Cu               0.2215990083        0.1851451653        0.0231528234
Cu               0.7794961732        0.7318738820        0.5533337154
O                0.9636864978        0.5991071460       -0.0808301588
O                0.5402183207        0.4788738067        0.2543436199



     Writing config-only to output data dir ./tmp/CuO_relax.save/ :
     XML data file
     NEW-OLD atomic charge density approx. for the potential

     total cpu time spent up to now is     2217.0 secs

     Self-consistent Calculation

     iteration #  1     ecut=    90.00 Ry     beta= 0.30
     Davidson diagonalization with overlap
     c_bands:  1 eigenvalues not converged
     c_bands:  1 eigenvalues not converged
     c_bands:  2 eigenvalues not converged
     c_bands:  1 eigenvalues not converged
     c_bands:  1 eigenvalues not converged
     c_bands:  1 eigenvalues not converged
     c_bands:  1 eigenvalues not converged
     c_bands:  1 eigenvalues not converged
     c_bands:  1 eigenvalues not converged
     ethr =  1.00E-06,  avg # of iterations = 17.2

     total cpu time spent up to now is     2332.1 secs

     total energy              =    -509.17209475 Ry
     estimated scf accuracy    <       0.08292870 Ry

     iteration #  2     ecut=    90.00 Ry     beta= 0.30
     Davidson diagonalization with overlap
     ethr =  2.44E-04,  avg # of iterations =  2.0

     total cpu time spent up to now is     2357.1 secs

     total energy              =    -509.16992936 Ry
     estimated scf accuracy    <       0.51817116 Ry

     iteration #  3     ecut=    90.00 Ry     beta= 0.30
     Davidson diagonalization with overlap
     ethr =  2.44E-04,  avg # of iterations =  1.8

     total cpu time spent up to now is     2378.7 secs

     total energy              =    -509.20027304 Ry
     estimated scf accuracy    <       0.01264846 Ry

     iteration #  4     ecut=    90.00 Ry     beta= 0.30
     Davidson diagonalization with overlap
     ethr =  3.72E-05,  avg # of iterations =  1.0

     total cpu time spent up to now is     2399.5 secs

     total energy              =    -509.19755282 Ry
     estimated scf accuracy    <       0.00347550 Ry

     iteration #  5     ecut=    90.00 Ry     beta= 0.30
     Davidson diagonalization with overlap
     ethr =  1.02E-05,  avg # of iterations =  2.0

     total cpu time spent up to now is     2424.4 secs

     total energy              =    -509.19796454 Ry
     estimated scf accuracy    <       0.00177422 Ry

     iteration #  6     ecut=    90.00 Ry     beta= 0.30
     Davidson diagonalization with overlap
     ethr =  5.22E-06,  avg # of iterations =  1.0

     total cpu time spent up to now is     2445.2 secs

     total energy              =    -509.19789000 Ry
     estimated scf accuracy    <       0.00038764 Ry

     iteration #  7     ecut=    90.00 Ry     beta= 0.30
     Davidson diagonalization with overlap
     ethr =  1.14E-06,  avg # of iterations =  2.1

     total cpu time spent up to now is     2468.0 secs

     total energy              =    -509.19797760 Ry
     estimated scf accuracy    <       0.00029516 Ry

     iteration #  8     ecut=    90.00 Ry     beta= 0.30
     Davidson diagonalization with overlap
     ethr =  8.68E-07,  avg # of iterations =  1.0

     total cpu time spent up to now is     2488.8 secs

     total energy              =    -509.19798666 Ry
     estimated scf accuracy    <       0.00003323 Ry

     iteration #  9     ecut=    90.00 Ry     beta= 0.30
     Davidson diagonalization with overlap
     ethr =  9.77E-08,  avg # of iterations =  2.0

     total cpu time spent up to now is     2511.0 secs

     total energy              =    -509.19799135 Ry
     estimated scf accuracy    <       0.00000099 Ry

     iteration # 10     ecut=    90.00 Ry     beta= 0.30
     Davidson diagonalization with overlap
     ethr =  2.91E-09,  avg # of iterations =  2.2

     total cpu time spent up to now is     2536.7 secs

     total energy              =    -509.19799164 Ry
     estimated scf accuracy    <       0.00000017 Ry

     iteration # 11     ecut=    90.00 Ry     beta= 0.30
     Davidson diagonalization with overlap
     ethr =  4.93E-10,  avg # of iterations =  2.4

     total cpu time spent up to now is     2559.7 secs

     total energy              =    -509.19799165 Ry
     estimated scf accuracy    <       0.00000004 Ry

     iteration # 12     ecut=    90.00 Ry     beta= 0.30
     Davidson diagonalization with overlap
     ethr =  1.03E-10,  avg # of iterations =  2.7

     total cpu time spent up to now is     2583.9 secs

     total energy              =    -509.19799165 Ry
     estimated scf accuracy    <       0.00000002 Ry

     iteration # 13     ecut=    90.00 Ry     beta= 0.30
     Davidson diagonalization with overlap
     ethr =  4.67E-11,  avg # of iterations =  2.0

     total cpu time spent up to now is     2606.5 secs

     End of self-consistent calculation

     Number of k-points >= 100: set verbosity='high' to print the bands.

     the Fermi energy is     5.7754 ev

!    total energy              =    -509.19799165 Ry
     total all-electron energy =     -6920.651309 Ry
     estimated scf accuracy    <          1.2E-09 Ry
     smearing contrib. (-TS)   =       0.00213612 Ry
     internal energy E=F+TS    =    -509.20012777 Ry

     The total energy is F=E-TS. E is the sum of the following terms:
     one-electron contribution =    -145.78954675 Ry
     hartree contribution      =     108.53882207 Ry
     xc contribution           =    -103.93030162 Ry
     ewald contribution        =    -169.24056176 Ry
     one-center paw contrib.   =    -198.77853971 Ry

     convergence has been achieved in  13 iterations

     Forces acting on atoms (cartesian axes, Ry/au):

     atom    1 type  1   force =     0.09064948   -0.12774508    0.04665764
     atom    2 type  1   force =    -0.05899237    0.06706880   -0.15561338
     atom    3 type  2   force =     0.01893322    0.08903861    0.16398820
     atom    4 type  2   force =    -0.05059033   -0.02836233   -0.05503246

     Total force =     0.316982     Total SCF correction =     0.000077


     Computing stress (Cartesian axis) and pressure

          total   stress  (Ry/bohr**3)                   (kbar)     P=      180.24
   0.00107867  -0.00050277   0.00092317          158.68      -73.96      135.80
  -0.00050277   0.00056924  -0.00016164          -73.96       83.74      -23.78
   0.00092317  -0.00016164   0.00202790          135.80      -23.78      298.31

     Energy error            =      7.1E-03 Ry
     Gradient error          =      1.6E-01 Ry/Bohr
     Cell gradient error     =      3.0E+02 kbar

     number of scf cycles    =   7
     number of bfgs steps    =   6

     enthalpy           old  =    -509.2051019891 Ry
     enthalpy           new  =    -509.1979916530 Ry

     CASE: enthalpy          _new > enthalpy          _old

     new trust radius        =       0.1267238708 bohr
     new conv_thr            =       0.0000000100 Ry

     new unit-cell volume =    394.76665 a.u.^3 (    58.49838 Ang^3 )
     density =      4.51594 g/cm^3

CELL_PARAMETERS (angstrom)
   4.596738626  -0.073574831  -0.021273990
  -0.049362210   3.013889997   0.125768839
  -0.809511169   0.203038051   4.235244077

ATOMIC_POSITIONS (crystal)
Cu               0.2304774113        0.1972641059        0.0190891117
Cu               0.7733381805        0.7339346786        0.5429244757
O                0.9645623528        0.5835246441       -0.0660676659
O                0.5366220554        0.4802765714        0.2540540784



     Writing config-only to output data dir ./tmp/CuO_relax.save/ :
     XML data file
     NEW-OLD atomic charge density approx. for the potential

     total cpu time spent up to now is     2624.0 secs

     Self-consistent Calculation

     iteration #  1     ecut=    90.00 Ry     beta= 0.30
     Davidson diagonalization with overlap
     ethr =  1.00E-06,  avg # of iterations = 13.5

     total cpu time spent up to now is     2718.4 secs

     total energy              =    -509.22227394 Ry
     estimated scf accuracy    <       0.02555299 Ry

     iteration #  2     ecut=    90.00 Ry     beta= 0.30
     Davidson diagonalization with overlap
     ethr =  7.52E-05,  avg # of iterations =  2.0

     total cpu time spent up to now is     2743.2 secs

     total energy              =    -509.21539970 Ry
     estimated scf accuracy    <       0.22463233 Ry

     iteration #  3     ecut=    90.00 Ry     beta= 0.30
     Davidson diagonalization with overlap
     ethr =  7.52E-05,  avg # of iterations =  2.0

     total cpu time spent up to now is     2765.9 secs

     total energy              =    -509.22611817 Ry
     estimated scf accuracy    <       0.00234121 Ry

     iteration #  4     ecut=    90.00 Ry     beta= 0.30
     Davidson diagonalization with overlap
     ethr =  6.89E-06,  avg # of iterations =  1.3

     total cpu time spent up to now is     2787.1 secs

     total energy              =    -509.22306601 Ry
     estimated scf accuracy    <       0.00067431 Ry

     iteration #  5     ecut=    90.00 Ry     beta= 0.30
     Davidson diagonalization with overlap
     ethr =  1.98E-06,  avg # of iterations =  2.0

     total cpu time spent up to now is     2812.6 secs

     total energy              =    -509.22150069 Ry
     estimated scf accuracy    <       0.00026950 Ry

     iteration #  6     ecut=    90.00 Ry     beta= 0.30
     Davidson diagonalization with overlap
     ethr =  7.93E-07,  avg # of iterations =  2.8

     total cpu time spent up to now is     2840.4 secs

     total energy              =    -509.22157251 Ry
     estimated scf accuracy    <       0.00004242 Ry

     iteration #  7     ecut=    90.00 Ry     beta= 0.30
     Davidson diagonalization with overlap
     ethr =  1.25E-07,  avg # of iterations =  2.0

     total cpu time spent up to now is     2863.3 secs

     total energy              =    -509.22155025 Ry
     estimated scf accuracy    <       0.00002090 Ry

     iteration #  8     ecut=    90.00 Ry     beta= 0.30
     Davidson diagonalization with overlap
     ethr =  6.15E-08,  avg # of iterations =  2.8

     total cpu time spent up to now is     2890.8 secs

     total energy              =    -509.22155846 Ry
     estimated scf accuracy    <       0.00000329 Ry

     iteration #  9     ecut=    90.00 Ry     beta= 0.30
     Davidson diagonalization with overlap
     ethr =  9.67E-09,  avg # of iterations =  2.4

     total cpu time spent up to now is     2914.6 secs

     total energy              =    -509.22155902 Ry
     estimated scf accuracy    <       0.00000081 Ry

     iteration # 10     ecut=    90.00 Ry     beta= 0.30
     Davidson diagonalization with overlap
     ethr =  2.38E-09,  avg # of iterations =  1.9

     total cpu time spent up to now is     2936.6 secs

     total energy              =    -509.22155911 Ry
     estimated scf accuracy    <       0.00000015 Ry

     iteration # 11     ecut=    90.00 Ry     beta= 0.30
     Davidson diagonalization with overlap
     ethr =  4.36E-10,  avg # of iterations =  2.0

     total cpu time spent up to now is     2960.0 secs

     total energy              =    -509.22155915 Ry
     estimated scf accuracy    <       0.00000004 Ry

     iteration # 12     ecut=    90.00 Ry     beta= 0.30
     Davidson diagonalization with overlap
     ethr =  1.05E-10,  avg # of iterations =  2.0

     total cpu time spent up to now is     2982.4 secs

     End of self-consistent calculation

     Number of k-points >= 100: set verbosity='high' to print the bands.

     the Fermi energy is     4.8779 ev

!    total energy              =    -509.22155916 Ry
     total all-electron energy =     -6920.674876 Ry
     estimated scf accuracy    <          4.1E-09 Ry
     smearing contrib. (-TS)   =       0.00231806 Ry
     internal energy E=F+TS    =    -509.22387721 Ry

     The total energy is F=E-TS. E is the sum of the following terms:
     one-electron contribution =    -151.62683088 Ry
     hartree contribution      =     110.60650612 Ry
     xc contribution           =    -103.79405265 Ry
     ewald contribution        =    -165.64716053 Ry
     one-center paw contrib.   =    -198.76233927 Ry

     convergence has been achieved in  12 iterations

     Forces acting on atoms (cartesian axes, Ry/au):

     atom    1 type  1   force =     0.07023736   -0.11720554    0.03615735
     atom    2 type  1   force =     0.01330323    0.02795922    0.02293114
     atom    3 type  2   force =    -0.04575038    0.11639995   -0.01329604
     atom    4 type  2   force =    -0.03779020   -0.02715363   -0.04579245

     Total force =     0.203822     Total SCF correction =     0.000097


     Computing stress (Cartesian axis) and pressure

          total   stress  (Ry/bohr**3)                   (kbar)     P=       64.71
   0.00071218  -0.00040843   0.00029661          104.76      -60.08       43.63
  -0.00040843   0.00018635   0.00008392          -60.08       27.41       12.35
   0.00029661   0.00008392   0.00042114           43.63       12.35       61.95

     Energy error            =      1.6E-02 Ry
     Gradient error          =      1.2E-01 Ry/Bohr
     Cell gradient error     =      1.0E+02 kbar

     number of scf cycles    =   8
     number of bfgs steps    =   6

     enthalpy           old  =    -509.2051019891 Ry
     enthalpy           new  =    -509.2215591577 Ry

     CASE: enthalpy          _new < enthalpy          _old

     new trust radius        =       0.1050550709 bohr
     new conv_thr            =       0.0000000100 Ry

     new unit-cell volume =    387.70889 a.u.^3 (    57.45253 Ang^3 )
     density =      4.59815 g/cm^3

CELL_PARAMETERS (angstrom)
   4.607272867  -0.095312243   0.013601526
  -0.068848606   2.973172912   0.139440904
  -0.765125108   0.228437731   4.203902608

ATOMIC_POSITIONS (crystal)
Cu               0.2286330868        0.1806896507        0.0232831783
Cu               0.7756258148        0.7359723194        0.5464883182
O                0.9649252712        0.6006840114       -0.0719026536
O                0.5358158273        0.4776540186        0.2521311571



     Writing config-only to output data dir ./tmp/CuO_relax.save/ :
     XML data file
     NEW-OLD atomic charge density approx. for the potential

     total cpu time spent up to now is     2999.9 secs

     Self-consistent Calculation

     iteration #  1     ecut=    90.00 Ry     beta= 0.30
     Davidson diagonalization with overlap
     ethr =  1.00E-06,  avg # of iterations = 11.8

     total cpu time spent up to now is     3081.3 secs

     total energy              =    -509.24003378 Ry
     estimated scf accuracy    <       0.01040057 Ry

     iteration #  2     ecut=    90.00 Ry     beta= 0.30
     Davidson diagonalization with overlap
     ethr =  3.06E-05,  avg # of iterations =  2.0

     total cpu time spent up to now is     3105.7 secs

     total energy              =    -509.23814920 Ry
     estimated scf accuracy    <       0.09533973 Ry

     iteration #  3     ecut=    90.00 Ry     beta= 0.30
     Davidson diagonalization with overlap
     ethr =  3.06E-05,  avg # of iterations =  2.0

     total cpu time spent up to now is     3128.0 secs

     total energy              =    -509.24354224 Ry
     estimated scf accuracy    <       0.00162832 Ry

     iteration #  4     ecut=    90.00 Ry     beta= 0.30
     Davidson diagonalization with overlap
     ethr =  4.79E-06,  avg # of iterations =  1.0

     total cpu time spent up to now is     3148.8 secs

     total energy              =    -509.24330102 Ry
     estimated scf accuracy    <       0.00051193 Ry

     iteration #  5     ecut=    90.00 Ry     beta= 0.30
     Davidson diagonalization with overlap
     ethr =  1.51E-06,  avg # of iterations =  1.3

     total cpu time spent up to now is     3169.9 secs

     total energy              =    -509.24330938 Ry
     estimated scf accuracy    <       0.00003055 Ry

     iteration #  6     ecut=    90.00 Ry     beta= 0.30
     Davidson diagonalization with overlap
     ethr =  8.99E-08,  avg # of iterations =  2.1

     total cpu time spent up to now is     3195.4 secs

     total energy              =    -509.24331063 Ry
     estimated scf accuracy    <       0.00000803 Ry

     iteration #  7     ecut=    90.00 Ry     beta= 0.30
     Davidson diagonalization with overlap
     ethr =  2.36E-08,  avg # of iterations =  2.0

     total cpu time spent up to now is     3217.8 secs

     total energy              =    -509.24331029 Ry
     estimated scf accuracy    <       0.00000526 Ry

     iteration #  8     ecut=    90.00 Ry     beta= 0.30
     Davidson diagonalization with overlap
     ethr =  1.55E-08,  avg # of iterations =  1.3

     total cpu time spent up to now is     3238.9 secs

     total energy              =    -509.24331104 Ry
     estimated scf accuracy    <       0.00000071 Ry

     iteration #  9     ecut=    90.00 Ry     beta= 0.30
     Davidson diagonalization with overlap
     ethr =  2.08E-09,  avg # of iterations =  1.9

     total cpu time spent up to now is     3261.0 secs

     total energy              =    -509.24331114 Ry
     estimated scf accuracy    <       0.00000004 Ry

     iteration # 10     ecut=    90.00 Ry     beta= 0.30
     Davidson diagonalization with overlap
     ethr =  1.17E-10,  avg # of iterations =  3.1

     total cpu time spent up to now is     3288.0 secs

     total energy              =    -509.24331115 Ry
     estimated scf accuracy    <       0.00000002 Ry

     iteration # 11     ecut=    90.00 Ry     beta= 0.30
     Davidson diagonalization with overlap
     ethr =  4.52E-11,  avg # of iterations =  1.5

     total cpu time spent up to now is     3309.4 secs

     End of self-consistent calculation

     Number of k-points >= 100: set verbosity='high' to print the bands.

     the Fermi energy is     4.9939 ev

!    total energy              =    -509.24331116 Ry
     total all-electron energy =     -6920.696628 Ry
     estimated scf accuracy    <          8.7E-10 Ry
     smearing contrib. (-TS)   =       0.00227057 Ry
     internal energy E=F+TS    =    -509.24558173 Ry

     The total energy is F=E-TS. E is the sum of the following terms:
     one-electron contribution =    -148.07187626 Ry
     hartree contribution      =     109.05905575 Ry
     xc contribution           =    -103.78176774 Ry
     ewald contribution        =    -167.69077920 Ry
     one-center paw contrib.   =    -198.76021429 Ry

     convergence has been achieved in  11 iterations

     Forces acting on atoms (cartesian axes, Ry/au):

     atom    1 type  1   force =     0.03767028   -0.08773939    0.02988831
     atom    2 type  1   force =    -0.01411333    0.02140106   -0.02949155
     atom    3 type  2   force =     0.00908461    0.07963793    0.03171401
     atom    4 type  2   force =    -0.03264155   -0.01329961   -0.03211077

     Total force =     0.145745     Total SCF correction =     0.000116


     Computing stress (Cartesian axis) and pressure

          total   stress  (Ry/bohr**3)                   (kbar)     P=       45.98
   0.00042684  -0.00025282   0.00022516           62.79      -37.19       33.12
  -0.00025282  -0.00003414   0.00003412          -37.19       -5.02        5.02
   0.00022516   0.00003412   0.00054505           33.12        5.02       80.18

     Energy error            =      2.2E-02 Ry
     Gradient error          =      8.8E-02 Ry/Bohr
     Cell gradient error     =      8.0E+01 kbar

     number of scf cycles    =   9
     number of bfgs steps    =   7

     enthalpy           old  =    -509.2215591577 Ry
     enthalpy           new  =    -509.2433111570 Ry

     CASE: enthalpy          _new < enthalpy          _old

     new trust radius        =       0.1547262196 bohr
     new conv_thr            =       0.0000000088 Ry

     new unit-cell volume =    383.18531 a.u.^3 (    56.78221 Ang^3 )
     density =      4.65243 g/cm^3

CELL_PARAMETERS (angstrom)
   4.633716150  -0.129882587   0.063369356
  -0.099306254   2.912056962   0.155560977
  -0.703054146   0.263366428   4.215623928

ATOMIC_POSITIONS (crystal)
Cu               0.2281218689        0.1539847458        0.0297765059
Cu               0.7748168176        0.7398065862        0.5467119474
O                0.9703993497        0.6271259992       -0.0745266088
O                0.5316619637        0.4740826688        0.2480381555



     Writing config-only to output data dir ./tmp/CuO_relax.save/ :
     XML data file
     NEW-OLD atomic charge density approx. for the potential

     total cpu time spent up to now is     3326.8 secs

     Self-consistent Calculation

     iteration #  1     ecut=    90.00 Ry     beta= 0.30
     Davidson diagonalization with overlap
     ethr =  1.00E-06,  avg # of iterations = 12.7

     total cpu time spent up to now is     3413.2 secs

     total energy              =    -509.27147529 Ry
     estimated scf accuracy    <       0.01206696 Ry

     iteration #  2     ecut=    90.00 Ry     beta= 0.30
     Davidson diagonalization with overlap
     ethr =  3.55E-05,  avg # of iterations =  2.0

     total cpu time spent up to now is     3436.4 secs

     total energy              =    -509.27147057 Ry
     estimated scf accuracy    <       0.04570194 Ry

     iteration #  3     ecut=    90.00 Ry     beta= 0.30
     Davidson diagonalization with overlap
     ethr =  3.55E-05,  avg # of iterations =  1.0

     total cpu time spent up to now is     3457.2 secs

     total energy              =    -509.27337054 Ry
     estimated scf accuracy    <       0.00846585 Ry

     iteration #  4     ecut=    90.00 Ry     beta= 0.30
     Davidson diagonalization with overlap
     ethr =  2.49E-05,  avg # of iterations =  1.0

     total cpu time spent up to now is     3477.9 secs

     total energy              =    -509.27188610 Ry
     estimated scf accuracy    <       0.00206172 Ry

     iteration #  5     ecut=    90.00 Ry     beta= 0.30
     Davidson diagonalization with overlap
     ethr =  6.06E-06,  avg # of iterations =  1.3

     total cpu time spent up to now is     3498.9 secs

     total energy              =    -509.27188956 Ry
     estimated scf accuracy    <       0.00035248 Ry

     iteration #  6     ecut=    90.00 Ry     beta= 0.30
     Davidson diagonalization with overlap
     ethr =  1.04E-06,  avg # of iterations =  2.0

     total cpu time spent up to now is     3521.5 secs

     total energy              =    -509.27195999 Ry
     estimated scf accuracy    <       0.00021405 Ry

     iteration #  7     ecut=    90.00 Ry     beta= 0.30
     Davidson diagonalization with overlap
     ethr =  6.30E-07,  avg # of iterations =  1.0

     total cpu time spent up to now is     3542.2 secs

     total energy              =    -509.27197181 Ry
     estimated scf accuracy    <       0.00001195 Ry

     iteration #  8     ecut=    90.00 Ry     beta= 0.30
     Davidson diagonalization with overlap
     ethr =  3.52E-08,  avg # of iterations =  2.0

     total cpu time spent up to now is     3564.7 secs

     total energy              =    -509.27197126 Ry
     estimated scf accuracy    <       0.00000746 Ry

     iteration #  9     ecut=    90.00 Ry     beta= 0.30
     Davidson diagonalization with overlap
     ethr =  2.20E-08,  avg # of iterations =  1.8

     total cpu time spent up to now is     3586.3 secs

     total energy              =    -509.27197242 Ry
     estimated scf accuracy    <       0.00000086 Ry

     iteration # 10     ecut=    90.00 Ry     beta= 0.30
     Davidson diagonalization with overlap
     ethr =  2.52E-09,  avg # of iterations =  1.9

     total cpu time spent up to now is     3608.3 secs

     total energy              =    -509.27197254 Ry
     estimated scf accuracy    <       0.00000004 Ry

     iteration # 11     ecut=    90.00 Ry     beta= 0.30
     Davidson diagonalization with overlap
     ethr =  1.14E-10,  avg # of iterations =  3.6

     total cpu time spent up to now is     3635.5 secs

     total energy              =    -509.27197255 Ry
     estimated scf accuracy    <       0.00000001 Ry

     iteration # 12     ecut=    90.00 Ry     beta= 0.30
     Davidson diagonalization with overlap
     ethr =  3.06E-11,  avg # of iterations =  2.0

     total cpu time spent up to now is     3658.2 secs

     End of self-consistent calculation

     Number of k-points >= 100: set verbosity='high' to print the bands.

     the Fermi energy is     5.0234 ev

!    total energy              =    -509.27197255 Ry
     total all-electron energy =     -6920.725290 Ry
     estimated scf accuracy    <          3.8E-09 Ry
     smearing contrib. (-TS)   =       0.00217597 Ry
     internal energy E=F+TS    =    -509.27414853 Ry

     The total energy is F=E-TS. E is the sum of the following terms:
     one-electron contribution =    -144.78158201 Ry
     hartree contribution      =     107.57252610 Ry
     xc contribution           =    -103.74991026 Ry
     ewald contribution        =    -169.55998130 Ry
     one-center paw contrib.   =    -198.75520106 Ry

     convergence has been achieved in  12 iterations

     Forces acting on atoms (cartesian axes, Ry/au):

     atom    1 type  1   force =     0.01862423   -0.05901157    0.02777437
     atom    2 type  1   force =    -0.02818756    0.00111727   -0.04153047
     atom    3 type  2   force =     0.03628722    0.04556993    0.03128627
     atom    4 type  2   force =    -0.02672389    0.01232437   -0.01753016

     Total force =     0.112547     Total SCF correction =     0.000158


     Computing stress (Cartesian axis) and pressure

          total   stress  (Ry/bohr**3)                   (kbar)     P=        8.72
   0.00011687   0.00002813   0.00003240           17.19        4.14        4.77
   0.00002813  -0.00024212   0.00012007            4.14      -35.62       17.66
   0.00003240   0.00012007   0.00030315            4.77       17.66       44.59

     Energy error            =      2.9E-02 Ry
     Gradient error          =      5.9E-02 Ry/Bohr
     Cell gradient error     =      4.5E+01 kbar

     number of scf cycles    =  10
     number of bfgs steps    =   8

     enthalpy           old  =    -509.2433111570 Ry
     enthalpy           new  =    -509.2719725538 Ry

     CASE: enthalpy          _new < enthalpy          _old

     new trust radius        =       0.2261124769 bohr
     new conv_thr            =       0.0000000059 Ry

     new unit-cell volume =    369.48012 a.u.^3 (    54.75130 Ang^3 )
     density =      4.82500 g/cm^3

CELL_PARAMETERS (angstrom)
   4.658849575  -0.159492080   0.118250547
  -0.124401466   2.800892007   0.192794566
  -0.634551186   0.332665782   4.207915100

ATOMIC_POSITIONS (crystal)
Cu               0.2279039351        0.1144087430        0.0403888485
Cu               0.7714455313        0.7425640986        0.5461636215
O                0.9810462166        0.6653355298       -0.0788166213
O                0.5246043170        0.4726916287        0.2422641512



     Writing config-only to output data dir ./tmp/CuO_relax.save/ :
     XML data file
     NEW-OLD atomic charge density approx. for the potential

     total cpu time spent up to now is     3675.6 secs

     Self-consistent Calculation

     iteration #  1     ecut=    90.00 Ry     beta= 0.30
     Davidson diagonalization with overlap
     c_bands:  1 eigenvalues not converged
     c_bands:  1 eigenvalues not converged
     c_bands:  1 eigenvalues not converged
     ethr =  1.00E-06,  avg # of iterations = 14.3

     total cpu time spent up to now is     3771.7 secs

     total energy              =    -509.29246988 Ry
     estimated scf accuracy    <       0.02638667 Ry

     iteration #  2     ecut=    90.00 Ry     beta= 0.30
     Davidson diagonalization with overlap
     ethr =  7.76E-05,  avg # of iterations =  2.0

     total cpu time spent up to now is     3795.2 secs

     total energy              =    -509.29445033 Ry
     estimated scf accuracy    <       0.04703520 Ry

     iteration #  3     ecut=    90.00 Ry     beta= 0.30
     Davidson diagonalization with overlap
     ethr =  7.76E-05,  avg # of iterations =  1.0

     total cpu time spent up to now is     3816.0 secs

     total energy              =    -509.29449362 Ry
     estimated scf accuracy    <       0.00401203 Ry

     iteration #  4     ecut=    90.00 Ry     beta= 0.30
     Davidson diagonalization with overlap
     ethr =  1.18E-05,  avg # of iterations =  1.2

     total cpu time spent up to now is     3836.9 secs

     total energy              =    -509.29081625 Ry
     estimated scf accuracy    <       0.01103399 Ry

     iteration #  5     ecut=    90.00 Ry     beta= 0.30
     Davidson diagonalization with overlap
     ethr =  1.18E-05,  avg # of iterations =  1.1

     total cpu time spent up to now is     3857.7 secs

     total energy              =    -509.29086836 Ry
     estimated scf accuracy    <       0.00036562 Ry

     iteration #  6     ecut=    90.00 Ry     beta= 0.30
     Davidson diagonalization with overlap
     ethr =  1.08E-06,  avg # of iterations =  2.1

     total cpu time spent up to now is     3881.5 secs

     total energy              =    -509.29081358 Ry
     estimated scf accuracy    <       0.00008346 Ry

     iteration #  7     ecut=    90.00 Ry     beta= 0.30
     Davidson diagonalization with overlap
     ethr =  2.45E-07,  avg # of iterations =  2.2

     total cpu time spent up to now is     3905.1 secs

     total energy              =    -509.29079541 Ry
     estimated scf accuracy    <       0.00007604 Ry

     iteration #  8     ecut=    90.00 Ry     beta= 0.30
     Davidson diagonalization with overlap
     ethr =  2.24E-07,  avg # of iterations =  1.7

     total cpu time spent up to now is     3926.7 secs

     total energy              =    -509.29080716 Ry
     estimated scf accuracy    <       0.00001917 Ry

     iteration #  9     ecut=    90.00 Ry     beta= 0.30
     Davidson diagonalization with overlap
     ethr =  5.64E-08,  avg # of iterations =  1.4

     total cpu time spent up to now is     3948.0 secs

     total energy              =    -509.29081042 Ry
     estimated scf accuracy    <       0.00000228 Ry

     iteration # 10     ecut=    90.00 Ry     beta= 0.30
     Davidson diagonalization with overlap
     ethr =  6.70E-09,  avg # of iterations =  1.8

     total cpu time spent up to now is     3969.9 secs

     total energy              =    -509.29081074 Ry
     estimated scf accuracy    <       0.00000006 Ry

     iteration # 11     ecut=    90.00 Ry     beta= 0.30
     Davidson diagonalization with overlap
     ethr =  1.88E-10,  avg # of iterations =  3.3

     total cpu time spent up to now is     3997.1 secs

     total energy              =    -509.29081075 Ry
     estimated scf accuracy    <       0.00000002 Ry

     iteration # 12     ecut=    90.00 Ry     beta= 0.30
     Davidson diagonalization with overlap
     ethr =  6.50E-11,  avg # of iterations =  2.0

     total cpu time spent up to now is     4019.8 secs

     End of self-consistent calculation

     Number of k-points >= 100: set verbosity='high' to print the bands.

     the Fermi energy is     5.4199 ev

!    total energy              =    -509.29081076 Ry
     total all-electron energy =     -6920.744128 Ry
     estimated scf accuracy    <          1.7E-09 Ry
     smearing contrib. (-TS)   =       0.00152741 Ry
     internal energy E=F+TS    =    -509.29233817 Ry

     The total energy is F=E-TS. E is the sum of the following terms:
     one-electron contribution =    -140.63059179 Ry
     hartree contribution      =     105.91158246 Ry
     xc contribution           =    -103.78469020 Ry
     ewald contribution        =    -172.03316640 Ry
     one-center paw contrib.   =    -198.75547224 Ry

     convergence has been achieved in  12 iterations

     Forces acting on atoms (cartesian axes, Ry/au):

     atom    1 type  1   force =     0.06693193    0.01663717    0.05981672
     atom    2 type  1   force =    -0.03367553   -0.01387633   -0.03672930
     atom    3 type  2   force =    -0.00240893   -0.03867828   -0.01262350
     atom    4 type  2   force =    -0.03084747    0.03591743   -0.01046392

     Total force =     0.122567     Total SCF correction =     0.000106


     Computing stress (Cartesian axis) and pressure

          total   stress  (Ry/bohr**3)                   (kbar)     P=       19.54
   0.00016278   0.00056618  -0.00000126           23.95       83.29       -0.19
   0.00056618   0.00008909   0.00037945           83.29       13.11       55.82
  -0.00000126   0.00037945   0.00014652           -0.19       55.82       21.55

     Energy error            =      1.9E-02 Ry
     Gradient error          =      6.7E-02 Ry/Bohr
     Cell gradient error     =      8.3E+01 kbar

     number of scf cycles    =  11
     number of bfgs steps    =   9

     enthalpy           old  =    -509.2719725538 Ry
     enthalpy           new  =    -509.2908107588 Ry

     CASE: enthalpy          _new < enthalpy          _old

     new trust radius        =       0.1085632034 bohr
     new conv_thr            =       0.0000000067 Ry

[...]
     estimated scf accuracy    <       0.00000066 Ry

     iteration #  8     ecut=    90.00 Ry     beta= 0.30
     Davidson diagonalization with overlap
     ethr =  1.93E-09,  avg # of iterations =  2.0

     total cpu time spent up to now is    16594.6 secs

     total energy              =    -509.39243350 Ry
     estimated scf accuracy    <       0.00000014 Ry

     iteration #  9     ecut=    90.00 Ry     beta= 0.30
     Davidson diagonalization with overlap
     ethr =  4.15E-10,  avg # of iterations =  2.0

     total cpu time spent up to now is    16620.9 secs

     total energy              =    -509.39243361 Ry
     estimated scf accuracy    <       0.00000001 Ry

     iteration # 10     ecut=    90.00 Ry     beta= 0.30
     Davidson diagonalization with overlap
     ethr =  3.63E-11,  avg # of iterations =  2.7

     total cpu time spent up to now is    16648.8 secs

     total energy              =    -509.39243365 Ry
     estimated scf accuracy    <          4.5E-09 Ry

     iteration # 11     ecut=    90.00 Ry     beta= 0.30
     Davidson diagonalization with overlap
     ethr =  1.31E-11,  avg # of iterations =  2.0

     total cpu time spent up to now is    16673.0 secs

     End of self-consistent calculation

     Number of k-points >= 100: set verbosity='high' to print the bands.

     the Fermi energy is     8.4361 ev

!    total energy              =    -509.39243369 Ry
     total all-electron energy =     -6920.845751 Ry
     estimated scf accuracy    <          2.5E-10 Ry
     smearing contrib. (-TS)   =       0.00018190 Ry
     internal energy E=F+TS    =    -509.39261559 Ry

     The total energy is F=E-TS. E is the sum of the following terms:
     one-electron contribution =     -98.43595386 Ry
     hartree contribution      =      88.09673640 Ry
     xc contribution           =    -103.89290246 Ry
     ewald contribution        =    -196.41733697 Ry
     one-center paw contrib.   =    -198.74315870 Ry

     convergence has been achieved in  11 iterations

     Forces acting on atoms (cartesian axes, Ry/au):

     atom    1 type  1   force =    -0.00568779   -0.01141670   -0.00569300
     atom    2 type  1   force =     0.02397649   -0.00490373   -0.03630830
     atom    3 type  2   force =    -0.00735226    0.01144944    0.03063657
     atom    4 type  2   force =    -0.01093644    0.00487100    0.01136473

     Total force =     0.059233     Total SCF correction =     0.000033


     Computing stress (Cartesian axis) and pressure

          total   stress  (Ry/bohr**3)                   (kbar)     P=       -3.71
   0.00002818   0.00012317   0.00009358            4.15       18.12       13.77
   0.00012317  -0.00000615   0.00003579           18.12       -0.90        5.26
   0.00009358   0.00003579  -0.00009774           13.77        5.26      -14.38

     Energy error            =      5.7E-03 Ry
     Gradient error          =      3.6E-02 Ry/Bohr
     Cell gradient error     =      1.8E+01 kbar

     number of scf cycles    =  48
     number of bfgs steps    =  45

     enthalpy           old  =    -509.3867207411 Ry
     enthalpy           new  =    -509.3924336917 Ry

     CASE: enthalpy          _new < enthalpy          _old

     new trust radius        =       0.1361958430 bohr
     new conv_thr            =       0.0000000036 Ry

     new unit-cell volume =    294.90521 a.u.^3 (    43.70044 Ang^3 )
     density =      6.04514 g/cm^3

CELL_PARAMETERS (angstrom)
   5.079920413  -0.325695721   0.500011241
  -0.303361560   2.909179228  -0.154307365
  -0.051487140  -0.241073978   2.982407810

ATOMIC_POSITIONS (crystal)
Cu               0.2549067100        0.1320226677        0.0570572664
Cu               0.7438576637        0.6327450354        0.5862430403
O                0.9939428051        0.5510075285        0.0036283006
O                0.5122928212        0.6792247684        0.1030713926



     Writing config-only to output data dir ./tmp/CuO_relax.save/ :
     XML data file
     NEW-OLD atomic charge density approx. for the potential

     total cpu time spent up to now is    16694.0 secs

     Self-consistent Calculation

     iteration #  1     ecut=    90.00 Ry     beta= 0.30
     Davidson diagonalization with overlap
     c_bands:  1 eigenvalues not converged
     c_bands:  1 eigenvalues not converged
     c_bands:  1 eigenvalues not converged
     c_bands:  1 eigenvalues not converged
     c_bands:  1 eigenvalues not converged
     c_bands:  1 eigenvalues not converged
     c_bands:  1 eigenvalues not converged
     c_bands:  1 eigenvalues not converged
     c_bands:  1 eigenvalues not converged
     ethr =  1.00E-06,  avg # of iterations = 14.3

     total cpu time spent up to now is    16792.6 secs

     total energy              =    -509.38817497 Ry
     estimated scf accuracy    <       0.02214452 Ry

     iteration #  2     ecut=    90.00 Ry     beta= 0.30
     Davidson diagonalization with overlap
     ethr =  6.51E-05,  avg # of iterations =  2.0

     total cpu time spent up to now is    16818.5 secs

     total energy              =    -509.38080463 Ry
     estimated scf accuracy    <       0.28198578 Ry

     iteration #  3     ecut=    90.00 Ry     beta= 0.30
     Davidson diagonalization with overlap
     ethr =  6.51E-05,  avg # of iterations =  2.0

     total cpu time spent up to now is    16843.4 secs

     total energy              =    -509.39653881 Ry
     estimated scf accuracy    <       0.00083207 Ry

     iteration #  4     ecut=    90.00 Ry     beta= 0.30
     Davidson diagonalization with overlap
     ethr =  2.45E-06,  avg # of iterations =  2.3

     total cpu time spent up to now is    16868.2 secs

     total energy              =    -509.39648566 Ry
     estimated scf accuracy    <       0.00044974 Ry

     iteration #  5     ecut=    90.00 Ry     beta= 0.30
     Davidson diagonalization with overlap
     ethr =  1.32E-06,  avg # of iterations =  1.2

     total cpu time spent up to now is    16890.1 secs

     total energy              =    -509.39648742 Ry
     estimated scf accuracy    <       0.00010531 Ry

     iteration #  6     ecut=    90.00 Ry     beta= 0.30
     Davidson diagonalization with overlap
     ethr =  3.10E-07,  avg # of iterations =  1.8

     total cpu time spent up to now is    16913.2 secs

     total energy              =    -509.39650458 Ry
     estimated scf accuracy    <       0.00001074 Ry

     iteration #  7     ecut=    90.00 Ry     beta= 0.30
     Davidson diagonalization with overlap
     ethr =  3.16E-08,  avg # of iterations =  2.0

     total cpu time spent up to now is    16938.4 secs

     total energy              =    -509.39650465 Ry
     estimated scf accuracy    <       0.00001252 Ry

     iteration #  8     ecut=    90.00 Ry     beta= 0.30
     Davidson diagonalization with overlap
     ethr =  3.16E-08,  avg # of iterations =  1.0

     total cpu time spent up to now is    16960.3 secs

     total energy              =    -509.39650577 Ry
     estimated scf accuracy    <       0.00000097 Ry

     iteration #  9     ecut=    90.00 Ry     beta= 0.30
     Davidson diagonalization with overlap
     ethr =  2.87E-09,  avg # of iterations =  2.0

     total cpu time spent up to now is    16986.0 secs

     total energy              =    -509.39650606 Ry
     estimated scf accuracy    <       0.00000035 Ry

     iteration # 10     ecut=    90.00 Ry     beta= 0.30
     Davidson diagonalization with overlap
     ethr =  1.04E-09,  avg # of iterations =  1.0

     total cpu time spent up to now is    17007.8 secs

     total energy              =    -509.39650612 Ry
     estimated scf accuracy    <       0.00000008 Ry

     iteration # 11     ecut=    90.00 Ry     beta= 0.30
     Davidson diagonalization with overlap
     ethr =  2.26E-10,  avg # of iterations =  1.6

     total cpu time spent up to now is    17030.3 secs

     End of self-consistent calculation

     Number of k-points >= 100: set verbosity='high' to print the bands.

     the Fermi energy is     8.7613 ev

!    total energy              =    -509.39650618 Ry
     total all-electron energy =     -6920.849823 Ry
     estimated scf accuracy    <          1.7E-09 Ry
     smearing contrib. (-TS)   =       0.00027151 Ry
     internal energy E=F+TS    =    -509.39677769 Ry

     The total energy is F=E-TS. E is the sum of the following terms:
     one-electron contribution =     -95.19938814 Ry
     hartree contribution      =      86.80637182 Ry
     xc contribution           =    -103.91075064 Ry
     ewald contribution        =    -198.34800471 Ry
     one-center paw contrib.   =    -198.74500602 Ry

     convergence has been achieved in  11 iterations

     Forces acting on atoms (cartesian axes, Ry/au):

     atom    1 type  1   force =    -0.01529669   -0.02468562   -0.00137570
     atom    2 type  1   force =     0.03093812   -0.00601975   -0.04581715
     atom    3 type  2   force =     0.00768049    0.01439655    0.02858399
     atom    4 type  2   force =    -0.02332192    0.01630882    0.01860886

     Total force =     0.078596     Total SCF correction =     0.000100


     Computing stress (Cartesian axis) and pressure

          total   stress  (Ry/bohr**3)                   (kbar)     P=        6.89
   0.00007143   0.00014616  -0.00004547           10.51       21.50       -6.69
   0.00014616   0.00008056   0.00003769           21.50       11.85        5.54
  -0.00004547   0.00003769  -0.00001144           -6.69        5.54       -1.68

     Energy error            =      4.1E-03 Ry
     Gradient error          =      4.6E-02 Ry/Bohr
     Cell gradient error     =      2.2E+01 kbar

     number of scf cycles    =  49
     number of bfgs steps    =  46

     enthalpy           old  =    -509.3924336917 Ry
     enthalpy           new  =    -509.3965061800 Ry

     CASE: enthalpy          _new < enthalpy          _old

     new trust radius        =       0.1355095128 bohr
     new conv_thr            =       0.0000000041 Ry

     new unit-cell volume =    299.08096 a.u.^3 (    44.31923 Ang^3 )
     density =      5.96073 g/cm^3

CELL_PARAMETERS (angstrom)
   5.187299807  -0.292746546   0.543095704
  -0.261001050   2.887836978  -0.121126588
  -0.006971796  -0.191647803   2.979252252

ATOMIC_POSITIONS (crystal)
Cu               0.2540413576        0.1383869177        0.0561008927
Cu               0.7534569369        0.6259227516        0.5690481451
O                0.9888477522        0.5698096816        0.0076365015
O                0.5086539533        0.6608806490        0.1172144607



     Writing config-only to output data dir ./tmp/CuO_relax.save/ :
     XML data file
     NEW-OLD atomic charge density approx. for the potential

     total cpu time spent up to now is    17050.2 secs

     Self-consistent Calculation

     iteration #  1     ecut=    90.00 Ry     beta= 0.30
     Davidson diagonalization with overlap
     c_bands:  1 eigenvalues not converged
     c_bands:  1 eigenvalues not converged
     c_bands:  1 eigenvalues not converged
     c_bands:  1 eigenvalues not converged
     c_bands:  1 eigenvalues not converged
     c_bands:  1 eigenvalues not converged
     c_bands:  1 eigenvalues not converged
     c_bands:  1 eigenvalues not converged
     ethr =  1.00E-06,  avg # of iterations = 14.3

     total cpu time spent up to now is    17149.4 secs

     total energy              =    -509.40243082 Ry
     estimated scf accuracy    <       0.00374652 Ry

     iteration #  2     ecut=    90.00 Ry     beta= 0.30
     Davidson diagonalization with overlap
     ethr =  1.10E-05,  avg # of iterations =  2.0

     total cpu time spent up to now is    17173.0 secs

     total energy              =    -509.40146560 Ry
     estimated scf accuracy    <       0.00692144 Ry

     iteration #  3     ecut=    90.00 Ry     beta= 0.30
     Davidson diagonalization with overlap
     ethr =  1.10E-05,  avg # of iterations =  1.0

     total cpu time spent up to now is    17194.8 secs

     total energy              =    -509.40000011 Ry
     estimated scf accuracy    <       0.00292059 Ry

     iteration #  4     ecut=    90.00 Ry     beta= 0.30
     Davidson diagonalization with overlap
     ethr =  8.59E-06,  avg # of iterations =  1.0

     total cpu time spent up to now is    17216.6 secs

     total energy              =    -509.39924502 Ry
     estimated scf accuracy    <       0.00070322 Ry

     iteration #  5     ecut=    90.00 Ry     beta= 0.30
     Davidson diagonalization with overlap
     ethr =  2.07E-06,  avg # of iterations =  1.2

     total cpu time spent up to now is    17238.6 secs

     total energy              =    -509.39899927 Ry
     estimated scf accuracy    <       0.00014697 Ry

     iteration #  6     ecut=    90.00 Ry     beta= 0.30
     Davidson diagonalization with overlap
     ethr =  4.32E-07,  avg # of iterations =  2.0

     total cpu time spent up to now is    17263.5 secs

     total energy              =    -509.39899986 Ry
     estimated scf accuracy    <       0.00003211 Ry

     iteration #  7     ecut=    90.00 Ry     beta= 0.30
     Davidson diagonalization with overlap
     ethr =  9.44E-08,  avg # of iterations =  2.1

     total cpu time spent up to now is    17287.3 secs

     total energy              =    -509.39899734 Ry
     estimated scf accuracy    <       0.00000821 Ry

     iteration #  8     ecut=    90.00 Ry     beta= 0.30
     Davidson diagonalization with overlap
     ethr =  2.41E-08,  avg # of iterations =  2.7

     total cpu time spent up to now is    17314.3 secs

     total energy              =    -509.39899934 Ry
     estimated scf accuracy    <       0.00000029 Ry

     iteration #  9     ecut=    90.00 Ry     beta= 0.30
     Davidson diagonalization with overlap
     ethr =  8.58E-10,  avg # of iterations =  2.6

     total cpu time spent up to now is    17340.1 secs

     total energy              =    -509.39899950 Ry
     estimated scf accuracy    <       0.00000011 Ry

     iteration # 10     ecut=    90.00 Ry     beta= 0.30
     Davidson diagonalization with overlap
     ethr =  3.34E-10,  avg # of iterations =  2.0

     total cpu time spent up to now is    17366.6 secs

     total energy              =    -509.39899956 Ry
     estimated scf accuracy    <       0.00000002 Ry

     iteration # 11     ecut=    90.00 Ry     beta= 0.30
     Davidson diagonalization with overlap
     ethr =  5.63E-11,  avg # of iterations =  2.0

     total cpu time spent up to now is    17392.2 secs

     End of self-consistent calculation

     Number of k-points >= 100: set verbosity='high' to print the bands.

     the Fermi energy is     8.5224 ev

!    total energy              =    -509.39899963 Ry
     total all-electron energy =     -6920.852317 Ry
     estimated scf accuracy    <          2.2E-09 Ry
     smearing contrib. (-TS)   =       0.00023225 Ry
     internal energy E=F+TS    =    -509.39923187 Ry

     The total energy is F=E-TS. E is the sum of the following terms:
     one-electron contribution =     -96.46778510 Ry
     hartree contribution      =      87.20567635 Ry
     xc contribution           =    -103.87849498 Ry
     ewald contribution        =    -197.51489413 Ry
     one-center paw contrib.   =    -198.74373401 Ry

     convergence has been achieved in  11 iterations

     Forces acting on atoms (cartesian axes, Ry/au):

     atom    1 type  1   force =    -0.01774737   -0.03361866    0.00056055
     atom    2 type  1   force =    -0.00821671   -0.00218928   -0.01129570
     atom    3 type  2   force =     0.02879238    0.01310412    0.01882548
     atom    4 type  2   force =    -0.00282831    0.02270382   -0.00809033

     Total force =     0.059912     Total SCF correction =     0.000130


     Computing stress (Cartesian axis) and pressure

          total   stress  (Ry/bohr**3)                   (kbar)     P=      -17.13
  -0.00025468   0.00016674  -0.00002081          -37.46       24.53       -3.06
   0.00016674   0.00009298   0.00004091           24.53       13.68        6.02
  -0.00002081   0.00004091  -0.00018770           -3.06        6.02      -27.61

     Energy error            =      2.5E-03 Ry
     Gradient error          =      3.4E-02 Ry/Bohr
     Cell gradient error     =      3.7E+01 kbar

     number of scf cycles    =  50
     number of bfgs steps    =  47

     enthalpy           old  =    -509.3965061800 Ry
     enthalpy           new  =    -509.3989996270 Ry

     CASE: enthalpy          _new < enthalpy          _old

     new trust radius        =       0.0486114467 bohr

     The maximum number of steps has been reached.

     End of BFGS Geometry Optimization
     new unit-cell volume =    297.78440 a.u.^3 (    44.12710 Ang^3 )
     density =      5.98669 g/cm^3

CELL_PARAMETERS (angstrom)
   5.146719750  -0.270125090   0.524493504
  -0.238899328   2.902259740  -0.097382859
  -0.031694249  -0.162875833   2.967937934

ATOMIC_POSITIONS (crystal)
Cu               0.2520630330        0.1320998275        0.0599513446
Cu               0.7510497918        0.6294564926        0.5700610546
O                0.9935998122        0.5684716994        0.0077222773
O                0.5082873631        0.6649719805        0.1122653235



     Writing config-only to output data dir ./tmp/CuO_relax.save/ :
     XML data file
     NEW-OLD atomic charge density approx. for the potential

     Writing all to output data dir ./tmp/CuO_relax.save/ :
     XML data file, charge density, pseudopotentials, collected wavefunctions
 
     init_run     :     10.92s CPU     11.59s WALL (       1 calls)
     electrons    :  16212.92s CPU  16409.41s WALL (      50 calls)
     update_pot   :     18.98s CPU     19.39s WALL (      50 calls)
     forces       :    103.47s CPU    110.43s WALL (      50 calls)
     stress       :    774.93s CPU    795.29s WALL (      50 calls)

     Called by init_run:
     wfcinit      :      9.28s CPU      9.57s WALL (       1 calls)
     potinit      :      0.40s CPU      0.63s WALL (       1 calls)
     hinit0       :      0.69s CPU      0.74s WALL (       1 calls)

     Called by electrons:
     c_bands      :  13244.85s CPU  13306.06s WALL (     566 calls)
     sum_band     :   2517.91s CPU   2592.73s WALL (     566 calls)
     v_of_rho     :     69.91s CPU     71.17s WALL (     617 calls)
     newd         :    265.29s CPU    328.92s WALL (     617 calls)
     PAW_pot      :    150.73s CPU    151.33s WALL (     667 calls)
     mix_rho      :      8.60s CPU      8.95s WALL (     566 calls)

     Called by c_bands:
     init_us_2    :    420.12s CPU    423.21s WALL (  143696 calls)
     cegterg      :  12160.87s CPU  12215.29s WALL (   63392 calls)

     Called by *egterg:
     cdiaghg      :    110.84s CPU    111.50s WALL (  230322 calls)
     h_psi        :  10277.60s CPU  10324.17s WALL (  235922 calls)
     s_psi        :    315.95s CPU    317.48s WALL (  235922 calls)
     g_psi        :     55.99s CPU     56.29s WALL (  172418 calls)

     Called by h_psi:
     h_psi:calbec :    322.01s CPU    323.52s WALL (  235922 calls)
     vloc_psi     :   9481.74s CPU   9524.79s WALL (  235922 calls)
     add_vuspsi   :    412.24s CPU    413.99s WALL (  235922 calls)

     General routines
     calbec       :    471.06s CPU    473.40s WALL (  332914 calls)
     fft          :     27.17s CPU     27.30s WALL (    9221 calls)
     ffts         :      0.99s CPU      1.00s WALL (    1183 calls)
     fftw         :   8599.80s CPU   8640.80s WALL ( 9008506 calls)
     interpolate  :      3.18s CPU      3.20s WALL (     617 calls)
     davcio       :      0.02s CPU      0.09s WALL (     112 calls)
 
     Parallel routines
 
     PWSCF        :      4h46m CPU      4h50m WALL

 
   This run was terminated on:  17:58:53  21Nov2025            

=------------------------------------------------------------------------------=
   JOB DONE.
=------------------------------------------------------------------------------=
