MPI startup(): PMI server not found. Please set I_MPI_PMI_LIBRARY variable if it is not a singleton case.

     Program PWSCF v.7.3.1 starts on 10Jan2026 at  5:20:37 

     This program is part of the open-source Quantum ESPRESSO suite
     for quantum simulation of materials; please cite
         "P. Giannozzi et al., J. Phys.:Condens. Matter 21 395502 (2009);
         "P. Giannozzi et al., J. Phys.:Condens. Matter 29 465901 (2017);
         "P. Giannozzi et al., J. Chem. Phys. 152 154105 (2020);
          URL http://www.quantum-espresso.org", 
     in publications or presentations arising from this work. More details at
     http://www.quantum-espresso.org/quote

     Parallel version (MPI), running on     1 processors

     MPI processes distributed on     1 nodes
     143603 MiB available memory on the printing compute node when the environment starts
 
     Reading input from CuO_slabovac_nscf.in

     Current dimensions of program PWSCF are:
     Max number of different atomic species (ntypx) = 10
     Max number of k-points (npk) =  40000
     Max angular momentum in pseudopotentials (lmaxx) =  4
     file Cu.pbe-dn-kjpaw_psl.1.0.0.UPF: wavefunction(s)  4S 3D renormalized
     file O.pbe-n-kjpaw_psl.0.1.UPF: wavefunction(s)  2P renormalized

     Atomic positions and unit cell read from directory:
     ./tmp/CuO_111_slab_Ovac.save/
 
     [opt_tetra]  Optimized tetrahedron method is used.
 
     Subspace diagonalization in iterative solution of the eigenvalue problem:
     a serial algorithm will be used

 
     G-vector sticks info
     --------------------
     sticks:   dense  smooth     PW     G-vecs:    dense   smooth      PW
     Sum        4573    2281    645              1860957   657963   99181
 
     Using Slab Decomposition
 


     bravais-lattice index     =            0
     lattice parameter (alat)  =       7.6739  a.u.
     unit-cell volume          =    5703.8646 (a.u.)^3
     number of atoms/cell      =           31
     number of atomic types    =            2
     number of electrons       =       266.00
     number of Kohn-Sham states=          160
     kinetic-energy cutoff     =      90.0000  Ry
     charge density cutoff     =     720.0000  Ry
     Exchange-correlation= SLA  PW   PBX  PBC
                           (   1   4   3   4   0   0   0)
     Hubbard projectors: ortho-atomic
     Hubbard parameters of DFT+U (Dudarev formulation) in eV:
     U(Cu-3d) =  5.0000

     Internal variables: lda_plus_u = T, lda_plus_u_kind = 0

     celldm(1)=   7.673918  celldm(2)=   0.000000  celldm(3)=   0.000000
     celldm(4)=   0.000000  celldm(5)=   0.000000  celldm(6)=   0.000000

     crystal axes: (cart. coord. in units of alat)
               a(1) = (  -0.722969   0.000000   0.690881 )  
               a(2) = (   0.684632  -1.269632  -0.007284 )  
               a(3) = (   5.898761   3.808895   6.172731 )  

     reciprocal axes: (cart. coord. in units 2 pi/alat)
               b(1) = ( -0.618724 -0.338228  0.799967 )  
               b(2) = (  0.208489 -0.676457  0.218173 )  
               b(3) = (  0.069496  0.037058  0.072724 )  


     PseudoPot. # 1 for Cu read from file:
     ../SSSP/Cu.pbe-dn-kjpaw_psl.1.0.0.UPF
     MD5 check sum: cfffd1f38ee05704b3e17f46f1730a6f
     Pseudo is Projector augmented-wave + core cor, Zval = 11.0
     Generated using &quot;atomic&quot; code by A. Dal Corso  v.6.3
     Shape of augmentation charge: PSQ
     Using radial grid of 1199 points,  6 beta functions with: 
                l(1) =   0
                l(2) =   0
                l(3) =   1
                l(4) =   1
                l(5) =   2
                l(6) =   2
     Q(r) pseudized with 0 coefficients 


     PseudoPot. # 2 for O  read from file:
     ../SSSP/O.pbe-n-kjpaw_psl.0.1.UPF
     MD5 check sum: 0234752ac141de4415c5fc33072bef88
     Pseudo is Projector augmented-wave + core cor, Zval =  6.0
     Generated using "atomic" code by A. Dal Corso  v.5.0.99 svn rev. 10869
     Shape of augmentation charge: BESSEL
     Using radial grid of 1095 points,  4 beta functions with: 
                l(1) =   0
                l(2) =   0
                l(3) =   1
                l(4) =   1
     Q(r) pseudized with 0 coefficients 


     atomic species   valence    mass     pseudopotential
     Cu               11.00    63.54600     Cu( 1.00)
     O                 6.00    15.99900     O ( 1.00)

     Starting magnetic structure 
     atomic species   magnetization
     Cu              0.500
     O               0.000

     No symmetry found



   Cartesian axes

     site n.     atom                  positions (alat units)
         1        Cu     tau(   1) = (   1.8315574   0.6483377   2.4809818  )
         2        Cu     tau(   2) = (   2.1780468   0.0353277   2.1775403  )
         3        Cu     tau(   3) = (   2.5576134   0.6453860   2.5216694  )
         4        Cu     tau(   4) = (   1.4777559   1.2758719   2.8505449  )
         5        Cu     tau(   5) = (   2.5507278   0.6329970   3.2430404  )
         6        Cu     tau(   6) = (   2.2073560   1.2704687   2.8825466  )
         7        Cu     tau(   7) = (   3.2745122   0.6303901   3.2770499  )
         8        Cu     tau(   8) = (   2.9322351   1.2680065   2.9181756  )
         9        Cu     tau(   9) = (   2.5888373   1.8959873   4.0126081  )
        10        Cu     tau(  10) = (   2.9312623   1.2635120   3.6419510  )
        11        Cu     tau(  11) = (   3.2995866   1.8814653   4.0465538  )
        12        Cu     tau(  12) = (   3.6554834   1.2518307   3.6734141  )
        13        Cu     tau(  13) = (   4.0481777   1.9017297   4.0918670  )
        14        Cu     tau(  14) = (   3.6636500   1.2662315   4.4152152  )
        15        Cu     tau(  15) = (   3.9300743   1.9733184   4.6807004  )
        16        Cu     tau(  16) = (   3.6847482   2.4734583   4.4493205  )
        17        O      tau(  17) = (   1.8256024   0.9883234   2.1654481  )
        18        O      tau(  18) = (   1.8380353   0.3097383   2.1843565  )
        19        O      tau(  19) = (   1.8348920   0.9595188   2.8517450  )
        20        O      tau(  20) = (   2.5592870   0.3495424   2.1544663  )
        21        O      tau(  21) = (   2.5665085   0.9538697   2.8876178  )
        22        O      tau(  22) = (   2.5344710   0.3187215   2.8748519  )
        23        O      tau(  23) = (   2.5680055   0.9492322   3.6098924  )
        24        O      tau(  24) = (   2.5730114   1.5855355   2.9182789  )
        25        O      tau(  25) = (   3.2890724   0.9438946   3.6458964  )
        26        O      tau(  26) = (   2.5733672   1.5833019   3.6444489  )
        27        O      tau(  27) = (   4.0082227   0.9332563   3.6863043  )
        28        O      tau(  28) = (   3.2999189   1.5725711   3.6731631  )
        29        O      tau(  29) = (   3.2984805   2.1916487   4.4159217  )
        30        O      tau(  30) = (   3.2929206   1.5574589   4.3897603  )
        31        O      tau(  31) = (   4.0597495   1.5935218   4.4466705  )

     number of k points=    74 (tetrahedron method)
                       cart. coord. in units 2pi/alat
        k(    1) = (   0.0000000   0.0000000   0.0000000), wk =   0.0069444
        k(    2) = (   0.0173741  -0.0563714   0.0181811), wk =   0.0138889
        k(    3) = (   0.0347482  -0.1127428   0.0363621), wk =   0.0138889
        k(    4) = (   0.0521224  -0.1691142   0.0545432), wk =   0.0138889
        k(    5) = (   0.0694965  -0.2254856   0.0727243), wk =   0.0138889
        k(    6) = (   0.0868706  -0.2818569   0.0909054), wk =   0.0138889
        k(    7) = (  -0.1042447   0.3382283  -0.1090864), wk =   0.0069444
        k(    8) = (  -0.0515603  -0.0281857   0.0666639), wk =   0.0138889
        k(    9) = (  -0.0341862  -0.0845571   0.0848450), wk =   0.0138889
        k(   10) = (  -0.0168121  -0.1409285   0.1030261), wk =   0.0138889
        k(   11) = (   0.0005620  -0.1972999   0.1212071), wk =   0.0138889
        k(   12) = (   0.0179362  -0.2536713   0.1393882), wk =   0.0138889
        k(   13) = (   0.0353103  -0.3100426   0.1575693), wk =   0.0138889
        k(   14) = (  -0.1558051   0.3100426  -0.0424225), wk =   0.0138889
        k(   15) = (  -0.1384310   0.2536712  -0.0242414), wk =   0.0138889
        k(   16) = (  -0.1210568   0.1972999  -0.0060604), wk =   0.0138889
        k(   17) = (  -0.1036827   0.1409285   0.0121207), wk =   0.0138889
        k(   18) = (  -0.0863086   0.0845571   0.0303018), wk =   0.0138889
        k(   19) = (  -0.0689345   0.0281857   0.0484829), wk =   0.0138889
        k(   20) = (  -0.1031207  -0.0563714   0.1333278), wk =   0.0138889
        k(   21) = (  -0.0857466  -0.1127428   0.1515089), wk =   0.0138889
        k(   22) = (  -0.0683724  -0.1691142   0.1696900), wk =   0.0138889
        k(   23) = (  -0.0509983  -0.2254856   0.1878711), wk =   0.0138889
        k(   24) = (  -0.0336242  -0.2818569   0.2060521), wk =   0.0138889
        k(   25) = (  -0.0162501  -0.3382283   0.2242332), wk =   0.0138889
        k(   26) = (  -0.2073654   0.2818569   0.0242414), wk =   0.0138889
        k(   27) = (  -0.1899913   0.2254856   0.0424225), wk =   0.0138889
        k(   28) = (  -0.1726172   0.1691142   0.0606036), wk =   0.0138889
        k(   29) = (  -0.1552431   0.1127428   0.0787846), wk =   0.0138889
        k(   30) = (  -0.1378689   0.0563714   0.0969657), wk =   0.0138889
        k(   31) = (  -0.1204948  -0.0000000   0.1151468), wk =   0.0138889
        k(   32) = (  -0.1546810  -0.0845571   0.1999918), wk =   0.0138889
        k(   33) = (  -0.1373069  -0.1409285   0.2181728), wk =   0.0138889
        k(   34) = (  -0.1199328  -0.1972999   0.2363539), wk =   0.0138889
        k(   35) = (  -0.1025586  -0.2536713   0.2545350), wk =   0.0138889
        k(   36) = (  -0.0851845  -0.3100426   0.2727161), wk =   0.0138889
        k(   37) = (  -0.0678104  -0.3664140   0.2908971), wk =   0.0138889
        k(   38) = (  -0.2589258   0.2536712   0.0909053), wk =   0.0138889
        k(   39) = (  -0.2415516   0.1972999   0.1090864), wk =   0.0138889
        k(   40) = (  -0.2241775   0.1409285   0.1272675), wk =   0.0138889
        k(   41) = (  -0.2068034   0.0845571   0.1454486), wk =   0.0138889
        k(   42) = (  -0.1894293   0.0281857   0.1636296), wk =   0.0138889
        k(   43) = (  -0.1720551  -0.0281857   0.1818107), wk =   0.0138889
        k(   44) = (  -0.2062414  -0.1127428   0.2666557), wk =   0.0138889
        k(   45) = (  -0.1888672  -0.1691142   0.2848368), wk =   0.0138889
        k(   46) = (  -0.1714931  -0.2254856   0.3030178), wk =   0.0138889
        k(   47) = (  -0.1541190  -0.2818570   0.3211989), wk =   0.0138889
        k(   48) = (  -0.1367449  -0.3382283   0.3393800), wk =   0.0138889
        k(   49) = (  -0.1193707  -0.3945997   0.3575611), wk =   0.0138889
        k(   50) = (  -0.3104861   0.2254855   0.1575693), wk =   0.0138889
        k(   51) = (  -0.2931120   0.1691142   0.1757503), wk =   0.0138889
        k(   52) = (  -0.2757379   0.1127428   0.1939314), wk =   0.0138889
        k(   53) = (  -0.2583637   0.0563714   0.2121125), wk =   0.0138889
        k(   54) = (  -0.2409896  -0.0000000   0.2302936), wk =   0.0138889
        k(   55) = (  -0.2236155  -0.0563714   0.2484746), wk =   0.0138889
        k(   56) = (  -0.2578017  -0.1409285   0.3333196), wk =   0.0138889
        k(   57) = (  -0.2404276  -0.1972999   0.3515007), wk =   0.0138889
        k(   58) = (  -0.2230535  -0.2536713   0.3696818), wk =   0.0138889
        k(   59) = (  -0.2056793  -0.3100426   0.3878628), wk =   0.0138889
        k(   60) = (  -0.1883052  -0.3664140   0.4060439), wk =   0.0138889
        k(   61) = (  -0.1709311  -0.4227854   0.4242250), wk =   0.0138889
        k(   62) = (  -0.3620464   0.1972999   0.2242332), wk =   0.0138889
        k(   63) = (  -0.3446723   0.1409285   0.2424143), wk =   0.0138889
        k(   64) = (  -0.3272982   0.0845571   0.2605953), wk =   0.0138889
        k(   65) = (  -0.3099241   0.0281857   0.2787764), wk =   0.0138889
        k(   66) = (  -0.2925499  -0.0281857   0.2969575), wk =   0.0138889
        k(   67) = (  -0.2751758  -0.0845571   0.3151385), wk =   0.0138889
        k(   68) = (   0.3093620   0.1691142  -0.3999835), wk =   0.0069444
        k(   69) = (   0.3267362   0.1127428  -0.3818025), wk =   0.0138889
        k(   70) = (   0.3441103   0.0563714  -0.3636214), wk =   0.0138889
        k(   71) = (   0.3614844   0.0000000  -0.3454403), wk =   0.0138889
        k(   72) = (   0.3788585  -0.0563714  -0.3272593), wk =   0.0138889
        k(   73) = (   0.3962327  -0.1127428  -0.3090782), wk =   0.0138889
        k(   74) = (   0.2051173   0.5073425  -0.5090700), wk =   0.0069444

     Dense  grid:  1860957 G-vectors     FFT dimensions: (  72,  96, 625)

     Smooth grid:   657963 G-vectors     FFT dimensions: (  48,  72, 450)

     Estimated max dynamical RAM per process >       7.23 GB
     Generating pointlists ...
     new r_m :   0.1803 (alat units)  1.3833 (a.u.) for type    1
     new r_m :   0.1803 (alat units)  1.3833 (a.u.) for type    2

     The potential is recalculated from file :
     ./tmp/CuO_111_slab_Ovac.save/charge-density


     negative rho (up, down):  3.630E-04 2.736E-04

     STARTING HUBBARD OCCUPATIONS:

     =================== HUBBARD OCCUPATIONS ===================
     ------------------------ ATOM    1 ------------------------
     Tr[ns(  1)] (up, down, total) =   4.67202  4.61807  9.29010
     Atomic magnetic moment for atom   1 =   0.05395
     SPIN  1
     eigenvalues:
       0.703  0.974  0.997  0.999  0.999
     eigenvectors (columns):
      -0.060 -0.517 -0.843  0.131  0.050
       0.034 -0.010  0.150  0.666  0.730
      -0.996 -0.009  0.079  0.005  0.026
      -0.047  0.855 -0.503  0.114  0.013
       0.006  0.033 -0.092 -0.726  0.681
     occupation matrix ns (before diag.):
       0.990  0.001 -0.018  0.009  0.000
       0.001  0.998  0.010  0.001  0.000
      -0.018  0.010  0.705 -0.014  0.002
       0.009  0.001 -0.014  0.980 -0.001
       0.000  0.000  0.002 -0.001  0.999
     SPIN  2
     eigenvalues:
       0.668  0.973  0.988  0.993  0.995
     eigenvectors (columns):
       0.003  0.499  0.316  0.434  0.680
       0.033  0.048  0.626 -0.761  0.160
      -0.999  0.004  0.050 -0.005 -0.019
      -0.001 -0.865  0.220  0.210  0.399
      -0.042 -0.004 -0.677 -0.433  0.594
     occupation matrix ns (before diag.):
       0.989 -0.001  0.001  0.009  0.002
      -0.001  0.991  0.010  0.000  0.003
       0.001  0.010  0.669 -0.000 -0.014
       0.009  0.000 -0.000  0.978  0.001
       0.002  0.003 -0.014  0.001  0.991
     ------------------------ ATOM    2 ------------------------
     Tr[ns(  2)] (up, down, total) =   4.92320  4.44353  9.36674
     Atomic magnetic moment for atom   2 =   0.47967
     SPIN  1
     eigenvalues:
       0.949  0.988  0.993  0.996  0.998
     eigenvectors (columns):
       0.621  0.185 -0.759 -0.039  0.044
      -0.090  0.683  0.055 -0.099 -0.716
       0.054 -0.533 -0.073 -0.729 -0.420
      -0.208 -0.438 -0.338  0.629 -0.505
       0.748 -0.154  0.548  0.247 -0.233
     occupation matrix ns (before diag.):
       0.976  0.002 -0.001  0.006 -0.021
       0.002  0.993  0.004  0.002  0.004
      -0.001  0.004  0.994 -0.001 -0.002
       0.006  0.002 -0.001  0.993  0.008
      -0.021  0.004 -0.002  0.008  0.968
     SPIN  2
     eigenvalues:
       0.502  0.970  0.985  0.990  0.996
     eigenvectors (columns):
       0.205  0.725  0.232 -0.614  0.041
       0.089 -0.119 -0.702 -0.336  0.610
      -0.017  0.024  0.545  0.281  0.789
       0.130 -0.675  0.394 -0.608 -0.032
       0.966 -0.051 -0.028  0.248 -0.047
     occupation matrix ns (before diag.):
       0.959 -0.006  0.001 -0.004 -0.096
      -0.006  0.986  0.006 -0.006 -0.042
       0.001  0.006  0.992  0.000  0.008
      -0.004 -0.006  0.000  0.972 -0.062
      -0.096 -0.042  0.008 -0.062  0.535
     ------------------------ ATOM    3 ------------------------
     Tr[ns(  3)] (up, down, total) =   4.94773  4.38856  9.33629
     Atomic magnetic moment for atom   3 =   0.55918
     SPIN  1
     eigenvalues:
       0.972  0.980  0.998  0.999  0.999
     eigenvectors (columns):
       0.645  0.070 -0.199 -0.732  0.056
       0.026  0.051  0.099  0.077  0.990
      -0.146  0.988 -0.020 -0.031 -0.042
      -0.749 -0.129 -0.126 -0.631  0.089
       0.029  0.013  0.966 -0.242 -0.079
     occupation matrix ns (before diag.):
       0.987 -0.000  0.001  0.013 -0.001
      -0.000  0.999 -0.001  0.001 -0.000
       0.001 -0.001  0.980 -0.000 -0.000
       0.013  0.001 -0.000  0.983  0.001
      -0.001 -0.000 -0.000  0.001  0.998
     SPIN  2
     eigenvalues:
       0.438  0.967  0.993  0.995  0.996
     eigenvectors (columns):
      -0.040  0.624  0.084 -0.152  0.761
       0.022  0.012  0.949  0.311 -0.051
       0.999  0.014 -0.014 -0.022  0.038
      -0.013 -0.780  0.062 -0.057  0.620
       0.009  0.050 -0.298  0.936  0.179
     occupation matrix ns (before diag.):
       0.984  0.000  0.022  0.014 -0.001
       0.000  0.993 -0.012  0.000  0.000
       0.022 -0.012  0.439  0.007 -0.005
       0.014  0.000  0.007  0.978  0.001
      -0.001  0.000 -0.005  0.001  0.995
     ------------------------ ATOM    4 ------------------------
     Tr[ns(  4)] (up, down, total) =   4.94632  4.37288  9.31921
     Atomic magnetic moment for atom   4 =   0.57344
     SPIN  1
     eigenvalues:
       0.972  0.982  0.996  0.997  0.999
     eigenvectors (columns):
      -0.987 -0.021 -0.005  0.140  0.073
      -0.034 -0.145 -0.575 -0.576  0.561
      -0.022 -0.085  0.817 -0.369  0.435
       0.148  0.111 -0.046  0.690  0.699
      -0.045  0.979 -0.010 -0.192  0.043
     occupation matrix ns (before diag.):
       0.973 -0.001 -0.001  0.004 -0.001
      -0.001  0.997  0.001  0.001  0.002
      -0.001  0.001  0.996  0.001  0.001
       0.004  0.001  0.001  0.997 -0.001
      -0.001  0.002  0.001 -0.001  0.983
     SPIN  2
     eigenvalues:
       0.425  0.964  0.993  0.994  0.997
     eigenvectors (columns):
      -0.003 -0.988  0.076  0.090 -0.102
       0.007 -0.024 -0.922  0.081 -0.378
       0.002 -0.037  0.080 -0.917 -0.389
       0.095  0.148  0.370  0.379 -0.830
       0.995 -0.017 -0.029 -0.034  0.083
     occupation matrix ns (before diag.):
       0.965 -0.001 -0.001  0.005  0.001
      -0.001  0.994  0.000  0.001 -0.004
      -0.001  0.000  0.994  0.001 -0.002
       0.005  0.001  0.001  0.990 -0.054
       0.001 -0.004 -0.002 -0.054  0.430
     ------------------------ ATOM    5 ------------------------
     Tr[ns(  5)] (up, down, total) =   4.95985  4.36498  9.32483
     Atomic magnetic moment for atom   5 =   0.59486
     SPIN  1
     eigenvalues:
       0.973  0.991  0.999  0.999  0.999
     eigenvectors (columns):
      -0.623 -0.040  0.247 -0.731 -0.120
      -0.014  0.059 -0.021  0.164 -0.984
      -0.055  0.997  0.007 -0.015  0.057
       0.777  0.038  0.284 -0.551 -0.106
      -0.072 -0.008  0.926  0.367  0.042
     occupation matrix ns (before diag.):
       0.989 -0.000 -0.001  0.012 -0.001
      -0.000  0.999 -0.001  0.000 -0.000
      -0.001 -0.001  0.990  0.001 -0.000
       0.012  0.000  0.001  0.983  0.001
      -0.001 -0.000 -0.000  0.001  0.998
     SPIN  2
     eigenvalues:
       0.411  0.968  0.994  0.995  0.997
     eigenvectors (columns):
       0.008  0.610  0.069  0.069 -0.786
      -0.053  0.011 -0.983 -0.147 -0.091
      -0.998 -0.010  0.053  0.014 -0.011
       0.018 -0.789  0.024  0.141 -0.597
       0.003  0.073 -0.157  0.976  0.128
     occupation matrix ns (before diag.):
       0.986  0.000  0.005  0.014 -0.001
       0.000  0.993 -0.031  0.001 -0.000
       0.005 -0.031  0.413  0.010  0.002
       0.014  0.001  0.010  0.978  0.001
      -0.001 -0.000  0.002  0.001  0.995
     ------------------------ ATOM    6 ------------------------
     Tr[ns(  6)] (up, down, total) =   4.95892  4.36770  9.32662
     Atomic magnetic moment for atom   6 =   0.59121
     SPIN  1
     eigenvalues:
       0.973  0.991  0.998  0.999  0.999
     eigenvectors (columns):
       0.979 -0.070 -0.062 -0.040  0.178
       0.076  0.025  0.539 -0.745 -0.386
       0.063  0.044  0.821  0.560  0.081
      -0.165  0.045  0.168 -0.361  0.901
       0.072  0.995 -0.062  0.008 -0.022
     occupation matrix ns (before diag.):
       0.974 -0.002 -0.001  0.004 -0.001
      -0.002  0.998 -0.001  0.000 -0.000
      -0.001 -0.001  0.998  0.000 -0.000
       0.004  0.000  0.000  0.998 -0.000
      -0.001 -0.000 -0.000 -0.000  0.991
     SPIN  2
     eigenvalues:
       0.414  0.968  0.994  0.995  0.996
     eigenvectors (columns):
       0.020 -0.983 -0.068  0.081  0.149
      -0.050 -0.080  0.989 -0.115 -0.006
      -0.053 -0.068 -0.123 -0.988  0.040
       0.018  0.151  0.022  0.026  0.988
       0.997  0.009  0.044 -0.060 -0.019
     occupation matrix ns (before diag.):
       0.969 -0.001 -0.001  0.004 -0.011
      -0.001  0.993 -0.002  0.001  0.029
      -0.001 -0.002  0.994  0.001  0.031
       0.004  0.001  0.001  0.996 -0.010
      -0.011  0.029  0.031 -0.010  0.417
     ------------------------ ATOM    7 ------------------------
     Tr[ns(  7)] (up, down, total) =   4.95995  4.36508  9.32503
     Atomic magnetic moment for atom   7 =   0.59488
     SPIN  1
     eigenvalues:
       0.973  0.991  0.999  0.999  0.999
     eigenvectors (columns):
      -0.632  0.035  0.234 -0.728  0.125
      -0.019 -0.049 -0.079  0.158  0.983
      -0.041 -0.998 -0.004 -0.021 -0.047
       0.771 -0.027  0.271 -0.562  0.126
      -0.068 -0.010  0.931  0.359  0.015
     occupation matrix ns (before diag.):
       0.988 -0.000 -0.000  0.013 -0.001
      -0.000  0.999 -0.000  0.000 -0.000
      -0.000 -0.000  0.991  0.001 -0.000
       0.013  0.000  0.001  0.983  0.001
      -0.001 -0.000 -0.000  0.001  0.998
     SPIN  2
     eigenvalues:
       0.412  0.967  0.994  0.995  0.997
     eigenvectors (columns):
      -0.010 -0.617  0.066 -0.069  0.781
       0.053 -0.019 -0.990  0.099  0.079
       0.998  0.006  0.053 -0.009  0.012
      -0.015  0.784  0.019 -0.136  0.605
      -0.001 -0.067 -0.107 -0.983 -0.131
     occupation matrix ns (before diag.):
       0.985  0.000  0.006  0.014 -0.001
       0.000  0.993 -0.031  0.001 -0.000
       0.006 -0.031  0.413  0.008  0.001
       0.014  0.001  0.008  0.979  0.001
      -0.001 -0.000  0.001  0.001  0.995
     ------------------------ ATOM    8 ------------------------
     Tr[ns(  8)] (up, down, total) =   4.96058  4.36422  9.32480
     Atomic magnetic moment for atom   8 =   0.59636
     SPIN  1
     eigenvalues:
       0.973  0.992  0.999  0.999  0.999
     eigenvectors (columns):
       0.982 -0.037 -0.115 -0.140 -0.033
       0.071 -0.045  0.141  0.168  0.972
       0.068 -0.032  0.953 -0.276 -0.097
      -0.154  0.012 -0.239 -0.936  0.208
       0.044  0.998  0.036  0.005  0.037
     occupation matrix ns (before diag.):
       0.974 -0.002 -0.002  0.004 -0.001
      -0.002  0.999 -0.000  0.000  0.000
      -0.002 -0.000  0.998  0.000  0.000
       0.004  0.000  0.000  0.998  0.000
      -0.001  0.000  0.000  0.000  0.992
     SPIN  2
     eigenvalues:
       0.411  0.968  0.994  0.995  0.997
     eigenvectors (columns):
       0.011 -0.986 -0.062  0.088  0.125
      -0.052 -0.069  0.991 -0.096  0.025
      -0.048 -0.067 -0.106 -0.984  0.120
       0.011  0.135 -0.004  0.111  0.984
       0.997  0.003  0.047 -0.055 -0.006
     occupation matrix ns (before diag.):
       0.968 -0.001 -0.001  0.004 -0.006
      -0.001  0.992 -0.001  0.001  0.030
      -0.001 -0.001  0.994  0.001  0.028
       0.004  0.001  0.001  0.996 -0.007
      -0.006  0.030  0.028 -0.007  0.414
     ------------------------ ATOM    9 ------------------------
     Tr[ns(  9)] (up, down, total) =   4.95619  4.37033  9.32651
     Atomic magnetic moment for atom   9 =   0.58586
     SPIN  1
     eigenvalues:
       0.972  0.988  0.999  0.999  0.999
     eigenvectors (columns):
      -0.631 -0.031  0.295 -0.704 -0.138
      -0.015  0.089 -0.018  0.194 -0.977
      -0.049  0.995  0.021 -0.008  0.090
       0.772  0.038  0.314 -0.538 -0.121
      -0.062 -0.025  0.902  0.422  0.066
     occupation matrix ns (before diag.):
       0.988 -0.000 -0.000  0.013 -0.001
      -0.000  0.999 -0.001  0.000 -0.000
      -0.000 -0.001  0.988  0.001  0.000
       0.013  0.000  0.001  0.983  0.001
      -0.001 -0.000  0.000  0.001  0.998
     SPIN  2
     eigenvalues:
       0.418  0.967  0.994  0.995  0.996
     eigenvectors (columns):
       0.023  0.618  0.016 -0.040  0.785
      -0.044  0.013  0.994  0.101 -0.023
      -0.998 -0.007 -0.044 -0.001  0.035
       0.026 -0.784  0.021  0.046  0.618
       0.003  0.060 -0.102  0.993  0.005
     occupation matrix ns (before diag.):
       0.985  0.000  0.013  0.014 -0.001
       0.000  0.993 -0.025  0.001  0.000
       0.013 -0.025  0.420  0.015  0.002
       0.014  0.001  0.015  0.978  0.001
      -0.001  0.000  0.002  0.001  0.995
     ------------------------ ATOM   10 ------------------------
     Tr[ns( 10)] (up, down, total) =   4.95899  4.36330  9.32230
     Atomic magnetic moment for atom  10 =   0.59569
     SPIN  1
     eigenvalues:
       0.973  0.990  0.998  0.999  0.999
     eigenvectors (columns):
      -0.983 -0.014  0.108  0.147  0.034
      -0.070 -0.060 -0.088 -0.182 -0.975
      -0.067 -0.036 -0.965  0.248  0.048
       0.157  0.020  0.220  0.940 -0.208
      -0.024  0.997 -0.043 -0.018 -0.052
     occupation matrix ns (before diag.):
       0.974 -0.002 -0.002  0.004 -0.000
      -0.002  0.999 -0.000  0.000  0.000
      -0.002 -0.000  0.998  0.000  0.000
       0.004  0.000  0.000  0.998 -0.000
      -0.000  0.000  0.000 -0.000  0.990
     SPIN  2
     eigenvalues:
       0.410  0.968  0.994  0.995  0.996
     eigenvectors (columns):
       0.008 -0.985  0.073  0.077 -0.134
      -0.051 -0.074 -0.996  0.003 -0.002
      -0.047 -0.068  0.005 -0.994 -0.067
       0.020  0.138 -0.009  0.056 -0.989
       0.997 -0.002 -0.051 -0.048  0.018
     occupation matrix ns (before diag.):
       0.969 -0.002 -0.002  0.004 -0.005
      -0.002  0.992 -0.002  0.001  0.030
      -0.002 -0.002  0.994  0.001  0.027
       0.004  0.001  0.001  0.996 -0.012
      -0.005  0.030  0.027 -0.012  0.413
     ------------------------ ATOM   11 ------------------------
     Tr[ns( 11)] (up, down, total) =   4.94776  4.37627  9.32403
     Atomic magnetic moment for atom  11 =   0.57148
     SPIN  1
     eigenvalues:
       0.972  0.980  0.998  0.998  0.999
     eigenvectors (columns):
      -0.578  0.220  0.197  0.760 -0.041
      -0.041  0.048 -0.748  0.113 -0.651
      -0.333 -0.940 -0.059  0.036  0.025
       0.743 -0.251  0.126  0.599 -0.106
      -0.049 -0.050  0.619 -0.223 -0.750
     occupation matrix ns (before diag.):
       0.989 -0.001 -0.001  0.012 -0.001
      -0.001  0.998  0.000  0.001  0.000
      -0.001  0.000  0.980  0.002 -0.001
       0.012  0.001  0.002  0.983  0.001
      -0.001  0.000 -0.001  0.001  0.998
     SPIN  2
     eigenvalues:
       0.423  0.968  0.993  0.995  0.996
     eigenvectors (columns):
       0.041 -0.611  0.135  0.280  0.727
      -0.019 -0.053 -0.871 -0.405  0.274
      -0.998  0.013  0.035  0.010  0.057
       0.045  0.789  0.025  0.225  0.569
      -0.024 -0.033 -0.471  0.841 -0.264
     occupation matrix ns (before diag.):
       0.985 -0.000  0.024  0.012 -0.000
      -0.000  0.994 -0.011  0.002 -0.001
       0.024 -0.011  0.426  0.026 -0.013
       0.012  0.002  0.026  0.977  0.001
      -0.000 -0.001 -0.013  0.001  0.994
     ------------------------ ATOM   12 ------------------------
     Tr[ns( 12)] (up, down, total) =   4.94824  4.37698  9.32522
     Atomic magnetic moment for atom  12 =   0.57126
     SPIN  1
     eigenvalues:
       0.972  0.982  0.998  0.998  0.999
     eigenvectors (columns):
       0.982  0.044  0.043 -0.169  0.055
       0.072 -0.021 -0.243  0.039 -0.966
       0.039 -0.034 -0.966  0.055  0.249
      -0.164  0.013 -0.072 -0.983 -0.034
      -0.038  0.998 -0.039  0.023 -0.014
     occupation matrix ns (before diag.):
       0.972 -0.002 -0.001  0.004  0.000
      -0.002  0.999 -0.000  0.000  0.000
      -0.001 -0.000  0.998  0.000  0.001
       0.004  0.000  0.000  0.998 -0.000
       0.000  0.000  0.001 -0.000  0.982
     SPIN  2
     eigenvalues:
       0.426  0.966  0.994  0.995  0.996
     eigenvectors (columns):
       0.003  0.987 -0.074 -0.097 -0.109
      -0.023  0.059  0.975  0.086 -0.197
      -0.039  0.040 -0.156  0.920 -0.354
       0.047 -0.147 -0.141 -0.365 -0.907
       0.998  0.007  0.023  0.055  0.025
     occupation matrix ns (before diag.):
       0.967 -0.002 -0.001  0.004 -0.002
      -0.002  0.993 -0.000  0.001  0.013
      -0.001 -0.000  0.994  0.002  0.022
       0.004  0.001  0.002  0.994 -0.027
      -0.002  0.013  0.022 -0.027  0.428
     ------------------------ ATOM   13 ------------------------
     Tr[ns( 13)] (up, down, total) =   4.76005  4.82336  9.58341
     Atomic magnetic moment for atom  13 =  -0.06331
     SPIN  1
     eigenvalues:
       0.803  0.972  0.992  0.995  0.997
     eigenvectors (columns):
       0.309  0.504  0.121  0.783  0.150
      -0.061  0.105 -0.677  0.195 -0.699
       0.893 -0.434 -0.082 -0.046 -0.076
      -0.312 -0.713 -0.158  0.563  0.230
      -0.078 -0.196  0.704  0.174 -0.656
     occupation matrix ns (before diag.):
       0.971  0.003 -0.048  0.027  0.006
       0.003  0.994  0.011 -0.003  0.002
      -0.048  0.011  0.838  0.046  0.012
       0.027 -0.003  0.046  0.965 -0.008
       0.006  0.002  0.012 -0.008  0.992
     SPIN  2
     eigenvalues:
       0.874  0.973  0.991  0.992  0.993
     eigenvectors (columns):
      -0.354 -0.505 -0.241 -0.714 -0.229
       0.043 -0.094  0.859 -0.358  0.351
      -0.858  0.498  0.117  0.037 -0.010
       0.366  0.663 -0.005 -0.524 -0.390
       0.046  0.221 -0.436 -0.294  0.820
     occupation matrix ns (before diag.):
       0.973  0.001 -0.031  0.022  0.004
       0.001  0.991  0.005 -0.001  0.001
      -0.031  0.005  0.900  0.031  0.003
       0.022 -0.001  0.031  0.968 -0.005
       0.004  0.001  0.003 -0.005  0.992
     ------------------------ ATOM   14 ------------------------
     Tr[ns( 14)] (up, down, total) =   4.95285  4.39613  9.34898
     Atomic magnetic moment for atom  14 =   0.55672
     SPIN  1
     eigenvalues:
       0.970  0.990  0.996  0.998  0.999
     eigenvectors (columns):
      -0.902 -0.385  0.137 -0.091  0.104
      -0.076 -0.155 -0.417 -0.209 -0.868
       0.007 -0.106  0.546  0.719 -0.417
       0.097  0.122  0.712 -0.649 -0.216
      -0.413  0.896 -0.045  0.098 -0.125
     occupation matrix ns (before diag.):
       0.974 -0.002 -0.000  0.003 -0.008
      -0.002  0.998  0.001  0.001  0.000
      -0.000  0.001  0.997 -0.000  0.001
       0.003  0.001 -0.000  0.997  0.000
      -0.008  0.000  0.001  0.000  0.987
     SPIN  2
     eigenvalues:
       0.439  0.970  0.995  0.996  0.997
     eigenvectors (columns):
       0.067 -0.985  0.115 -0.038 -0.101
      -0.007 -0.098 -0.499 -0.605  0.612
      -0.061 -0.049  0.448  0.429  0.781
      -0.000  0.116  0.733 -0.669 -0.045
       0.996  0.062  0.016  0.025  0.059
     occupation matrix ns (before diag.):
       0.968 -0.002  0.001  0.003 -0.035
      -0.002  0.996  0.000  0.001  0.004
       0.001  0.000  0.994 -0.000  0.034
       0.003  0.001 -0.000  0.995 -0.000
      -0.035  0.004  0.034 -0.000  0.444
     ------------------------ ATOM   15 ------------------------
     Tr[ns( 15)] (up, down, total) =   4.91121  4.90001  9.81122
     Atomic magnetic moment for atom  15 =   0.01120
     SPIN  1
     eigenvalues:
       0.959  0.975  0.989  0.994  0.994
     eigenvectors (columns):
      -0.173 -0.352 -0.919 -0.026 -0.045
       0.250 -0.357  0.137 -0.696 -0.554
      -0.744  0.451 -0.018 -0.492 -0.013
      -0.378 -0.708  0.321 -0.102  0.493
      -0.460 -0.210  0.185  0.513 -0.669
     occupation matrix ns (before diag.):
       0.986 -0.000 -0.002 -0.005 -0.003
      -0.000  0.989  0.009 -0.002  0.003
      -0.002  0.009  0.971 -0.004 -0.010
      -0.005 -0.002 -0.004  0.979 -0.009
      -0.003  0.003 -0.010 -0.009  0.986
     SPIN  2
     eigenvalues:
       0.949  0.977  0.989  0.991  0.993
     eigenvectors (columns):
      -0.191 -0.239  0.892 -0.333 -0.018
       0.206 -0.392 -0.180 -0.362  0.800
      -0.738  0.476 -0.174 -0.394  0.206
      -0.426 -0.730 -0.344 -0.134 -0.386
      -0.441 -0.171  0.154  0.765  0.409
     occupation matrix ns (before diag.):
       0.987  0.001 -0.004 -0.005 -0.005
       0.001  0.989  0.009 -0.001  0.004
      -0.004  0.009  0.965 -0.009 -0.012
      -0.005 -0.001 -0.009  0.976 -0.010
      -0.005  0.004 -0.012 -0.010  0.983
     ------------------------ ATOM   16 ------------------------
     Tr[ns( 16)] (up, down, total) =   4.89798  4.87936  9.77733
     Atomic magnetic moment for atom  16 =   0.01862
     SPIN  1
     eigenvalues:
       0.948  0.974  0.987  0.993  0.996
     eigenvectors (columns):
      -0.243  0.915 -0.310 -0.006 -0.085
       0.187 -0.118 -0.671  0.337  0.622
      -0.229  0.212  0.638  0.387  0.587
       0.226  0.128  0.084 -0.825  0.495
       0.896  0.295  0.199  0.235 -0.127
     occupation matrix ns (before diag.):
       0.974  0.003 -0.005  0.000  0.005
       0.003  0.990  0.006 -0.000 -0.006
      -0.005  0.006  0.988  0.002  0.007
       0.000 -0.000  0.002  0.991 -0.010
       0.005 -0.006  0.007 -0.010  0.955
     SPIN  2
     eigenvalues:
       0.934  0.972  0.987  0.993  0.994
     eigenvectors (columns):
      -0.269  0.902 -0.294  0.076 -0.148
       0.147 -0.058 -0.684 -0.061  0.710
      -0.267  0.244  0.634 -0.052  0.682
       0.180  0.133  0.031 -0.971 -0.080
       0.896  0.326  0.206  0.213  0.059
     occupation matrix ns (before diag.):
       0.971  0.002 -0.008  0.000  0.008
       0.002  0.989  0.006 -0.001 -0.006
      -0.008  0.006  0.985  0.002  0.012
       0.000 -0.001  0.002  0.990 -0.010
       0.008 -0.006  0.012 -0.010  0.943

     Number of occupied Hubbard levels =  150.4326

     Atomic wfc used for Hubbard projectors are orthogonalized

     Starting wfcs are  204 randomized atomic wfcs
     Checking if some PAW data can be deallocated... 

     Band Structure Calculation
     Davidson diagonalization with overlap
     c_bands:  1 eigenvalues not converged
     c_bands:  1 eigenvalues not converged
     c_bands:  1 eigenvalues not converged

     ethr =  3.76E-12,  avg # of iterations = 68.0

     total cpu time spent up to now is    87522.5 secs

     End of band structure calculation

     Number of k-points >= 100: set verbosity='high' to print the bands.

     the Fermi energy is     0.2128 ev
     (compare with:     0.1922 eV, computed in scf)

     Writing all to output data dir ./tmp/CuO_111_slab_Ovac.save/ :
     XML data file, pseudopotentials, collected wavefunctions
 
     init_run     :    503.72s CPU    522.13s WALL (       1 calls)
     electrons    :  86616.85s CPU  87000.09s WALL (       1 calls)

     Called by init_run:
     wfcinit      :    470.08s CPU    486.43s WALL (       1 calls)
     potinit      :      8.89s CPU      9.44s WALL (       1 calls)
     hinit0       :      3.61s CPU      3.72s WALL (       1 calls)

     Called by electrons:
     c_bands      :  86615.43s CPU  86998.66s WALL (       1 calls)
     v_of_rho     :      3.72s CPU      4.13s WALL (       1 calls)
     newd         :     19.36s CPU     20.73s WALL (       1 calls)
     PAW_pot      :      4.75s CPU      4.76s WALL (       1 calls)

     Called by c_bands:
     init_us_2    :     88.78s CPU     89.09s WALL (     296 calls)
     cegterg      :  83949.33s CPU  84273.92s WALL (     576 calls)

     Called by *egterg:
     cdiaghg      :    380.22s CPU    381.04s WALL (   10216 calls)
     h_psi        :  61468.75s CPU  61656.54s WALL (   10792 calls)
     s_psi        :   4456.61s CPU   4467.18s WALL (   10940 calls)
     g_psi        :    298.47s CPU    299.16s WALL (   10068 calls)

     Called by h_psi:
     h_psi:calbec :   4317.74s CPU   4328.45s WALL (   10792 calls)
     vloc_psi     :  45062.10s CPU  45161.73s WALL (   10792 calls)
     add_vuspsi   :   4336.50s CPU   4346.87s WALL (   10792 calls)
     vhpsi        :   7367.59s CPU   7385.33s WALL (   10792 calls)

     General routines
     calbec       :   5481.66s CPU   5495.44s WALL (   21732 calls)
     fft          :      1.17s CPU      1.20s WALL (      23 calls)
     ffts         :      0.03s CPU      0.03s WALL (       2 calls)
     fftw         :  27457.03s CPU  27517.03s WALL ( 1839542 calls)
     interpolate  :      0.19s CPU      0.21s WALL (       2 calls)
     davcio       :      0.16s CPU     60.19s WALL (     592 calls)
 
     Parallel routines

     Hubbard U routines
     vhpsi        :   7367.59s CPU   7385.33s WALL (   10792 calls)
 
     PWSCF        :   1d 0h12m CPU   1d 0h19m WALL

 
   This run was terminated on:   5:40: 8  11Jan2026            

=------------------------------------------------------------------------------=
   JOB DONE.
=------------------------------------------------------------------------------=
