MPI startup(): PMI server not found. Please set I_MPI_PMI_LIBRARY variable if it is not a singleton case.

     Program PWSCF v.7.3.1 starts on 25Nov2025 at 11:53:14 

     This program is part of the open-source Quantum ESPRESSO suite
     for quantum simulation of materials; please cite
         "P. Giannozzi et al., J. Phys.:Condens. Matter 21 395502 (2009);
         "P. Giannozzi et al., J. Phys.:Condens. Matter 29 465901 (2017);
         "P. Giannozzi et al., J. Chem. Phys. 152 154105 (2020);
          URL http://www.quantum-espresso.org", 
     in publications or presentations arising from this work. More details at
     http://www.quantum-espresso.org/quote

     Parallel version (MPI), running on     1 processors

     MPI processes distributed on     1 nodes
     144501 MiB available memory on the printing compute node when the environment starts
 
     Reading input from CuO_slabovac_relax.in

     Current dimensions of program PWSCF are:
     Max number of different atomic species (ntypx) = 10
     Max number of k-points (npk) =  40000
     Max angular momentum in pseudopotentials (lmaxx) =  4
     file Cu.pbe-dn-kjpaw_psl.1.0.0.UPF: wavefunction(s)  4S 3D renormalized
     file O.pbe-n-kjpaw_psl.0.1.UPF: wavefunction(s)  2P renormalized
 
     Subspace diagonalization in iterative solution of the eigenvalue problem:
     a serial algorithm will be used

 
     G-vector sticks info
     --------------------
     sticks:   dense  smooth     PW     G-vecs:    dense   smooth      PW
     Sum        3047    1525    445              1012953   358117   56287
 
     Using Slab Decomposition
 


     bravais-lattice index     =            0
     lattice parameter (alat)  =       7.6739  a.u.
     unit-cell volume          =    5703.8646 (a.u.)^3
     number of atoms/cell      =           31
     number of atomic types    =            2
     number of electrons       =       266.00
     number of Kohn-Sham states=          160
     kinetic-energy cutoff     =      60.0000  Ry
     charge density cutoff     =     480.0000  Ry
     scf convergence threshold =      1.0E-06
     mixing beta               =       0.3000
     number of iterations used =            8  plain     mixing
     energy convergence thresh.=      1.0E-04
     force convergence thresh. =      1.0E-03
     Exchange-correlation= SLA  PW   PBX  PBC
                           (   1   4   3   4   0   0   0)
     nstep                     =          200


     celldm(1)=   7.673918  celldm(2)=   0.000000  celldm(3)=   0.000000
     celldm(4)=   0.000000  celldm(5)=   0.000000  celldm(6)=   0.000000

     crystal axes: (cart. coord. in units of alat)
               a(1) = (  -0.722969   0.000000   0.690881 )  
               a(2) = (   0.684632  -1.269632  -0.007284 )  
               a(3) = (   5.898761   3.808895   6.172731 )  

     reciprocal axes: (cart. coord. in units 2 pi/alat)
               b(1) = ( -0.618724 -0.338228  0.799967 )  
               b(2) = (  0.208489 -0.676457  0.218173 )  
               b(3) = (  0.069496  0.037058  0.072724 )  


     PseudoPot. # 1 for Cu read from file:
     ../SSSP/Cu.pbe-dn-kjpaw_psl.1.0.0.UPF
     MD5 check sum: cfffd1f38ee05704b3e17f46f1730a6f
     Pseudo is Projector augmented-wave + core cor, Zval = 11.0
     Generated using &quot;atomic&quot; code by A. Dal Corso  v.6.3
     Shape of augmentation charge: PSQ
     Using radial grid of 1199 points,  6 beta functions with: 
                l(1) =   0
                l(2) =   0
                l(3) =   1
                l(4) =   1
                l(5) =   2
                l(6) =   2
     Q(r) pseudized with 0 coefficients 


     PseudoPot. # 2 for O  read from file:
     ../SSSP/O.pbe-n-kjpaw_psl.0.1.UPF
     MD5 check sum: 0234752ac141de4415c5fc33072bef88
     Pseudo is Projector augmented-wave + core cor, Zval =  6.0
     Generated using "atomic" code by A. Dal Corso  v.5.0.99 svn rev. 10869
     Shape of augmentation charge: BESSEL
     Using radial grid of 1095 points,  4 beta functions with: 
                l(1) =   0
                l(2) =   0
                l(3) =   1
                l(4) =   1
     Q(r) pseudized with 0 coefficients 


     atomic species   valence    mass     pseudopotential
     Cu               11.00    63.54600     Cu( 1.00)
     O                 6.00    15.99900     O ( 1.00)

     No symmetry found



   Cartesian axes

     site n.     atom                  positions (alat units)
         1        Cu     tau(   1) = (   1.8301894   0.6395908   2.4748797  )
         2        Cu     tau(   2) = (   2.1767697   0.0245254   2.1693868  )
         3        Cu     tau(   3) = (   2.5561940   0.6378959   2.5166857  )
         4        Cu     tau(   4) = (   1.4768144   1.2677202   2.8427982  )
         5        Cu     tau(   5) = (   2.5462686   0.6295101   3.2408207  )
         6        Cu     tau(   6) = (   2.2045646   1.2643192   2.8775812  )
         7        Cu     tau(   7) = (   3.2699517   0.6338624   3.2779904  )
         8        Cu     tau(   8) = (   2.9277057   1.2674889   2.9176398  )
         9        Cu     tau(   9) = (   2.5849561   1.9057788   4.0131952  )
        10        Cu     tau(  10) = (   2.9282522   1.2696626   3.6458953  )
        11        Cu     tau(  11) = (   3.3007341   1.8963305   4.0497791  )
        12        Cu     tau(  12) = (   3.6537605   1.2707611   3.6859976  )
        13        Cu     tau(  13) = (   4.0454210   1.9071355   4.0948537  )
        14        Cu     tau(  14) = (   3.6588539   1.2585526   4.4136342  )
        15        Cu     tau(  15) = (   3.9661216   1.9154663   4.7376024  )
        16        Cu     tau(  16) = (   3.7156487   2.5337376   4.4254535  )
        17        O      tau(  17) = (   1.8237557   0.9785584   2.1565668  )
        18        O      tau(  18) = (   1.8369850   0.2987451   2.1789343  )
        19        O      tau(  19) = (   1.8342613   0.9508086   2.8440835  )
        20        O      tau(  20) = (   2.5567988   0.3409763   2.1491408  )
        21        O      tau(  21) = (   2.5644176   0.9484926   2.8820680  )
        22        O      tau(  22) = (   2.5317113   0.3121523   2.8711395  )
        23        O      tau(  23) = (   2.5659031   0.9504244   3.6068004  )
        24        O      tau(  24) = (   2.5662850   1.5836983   2.9190368  )
        25        O      tau(  25) = (   3.2901505   0.9536840   3.6444542  )
        26        O      tau(  26) = (   2.5669414   1.5869662   3.6473600  )
        27        O      tau(  27) = (   4.0066267   0.9488773   3.6858166  )
        28        O      tau(  28) = (   3.2935576   1.5873888   3.6834874  )
        29        O      tau(  29) = (   3.3088430   2.1986936   4.4118390  )
        30        O      tau(  30) = (   3.3020534   1.5817856   4.4141579  )
        31        O      tau(  31) = (   4.0426730   1.5608644   4.4329226  )

     number of k points=    10  Methfessel-Paxton smearing, width (Ry)=  0.0200
                       cart. coord. in units 2pi/alat
        k(    1) = (   0.0000000   0.0000000   0.0000000), wk =   0.1250000
        k(    2) = (   0.0521224  -0.1691142   0.0545432), wk =   0.2500000
        k(    3) = (  -0.1042447   0.3382283  -0.1090864), wk =   0.1250000
        k(    4) = (  -0.1546810  -0.0845571   0.1999918), wk =   0.2500000
        k(    5) = (  -0.1025586  -0.2536713   0.2545350), wk =   0.2500000
        k(    6) = (  -0.2589258   0.2536712   0.0909053), wk =   0.2500000
        k(    7) = (  -0.2068034   0.0845571   0.1454486), wk =   0.2500000
        k(    8) = (   0.3093620   0.1691142  -0.3999835), wk =   0.1250000
        k(    9) = (   0.3614844   0.0000000  -0.3454403), wk =   0.2500000
        k(   10) = (   0.2051173   0.5073425  -0.5090700), wk =   0.1250000

     Dense  grid:  1012953 G-vectors     FFT dimensions: (  54,  80, 512)

     Smooth grid:   358117 G-vectors     FFT dimensions: (  40,  60, 360)

     Estimated max dynamical RAM per process >       5.54 GB

     Initial potential from superposition of free atoms

     starting charge     265.9963, renormalised to     266.0000

     negative rho (up, down):  6.585E-04 0.000E+00
     Starting wfcs are  204 randomized atomic wfcs
     Checking if some PAW data can be deallocated... 

     total cpu time spent up to now is       93.7 secs

     Self-consistent Calculation

     iteration #  1     ecut=    60.00 Ry     beta= 0.30
     Davidson diagonalization with overlap
     ethr =  1.00E-02,  avg # of iterations =  2.7

     negative rho (up, down):  3.892E-04 0.000E+00

     total cpu time spent up to now is      300.0 secs

     total energy              =   -4030.36530890 Ry
     estimated scf accuracy    <       9.91108346 Ry

     iteration #  2     ecut=    60.00 Ry     beta= 0.30
     Davidson diagonalization with overlap
     ethr =  3.73E-03,  avg # of iterations =  5.8

     negative rho (up, down):  6.315E-04 0.000E+00

     total cpu time spent up to now is      543.6 secs

     total energy              =   -4024.02367789 Ry
     estimated scf accuracy    <     430.27648770 Ry

     iteration #  3     ecut=    60.00 Ry     beta= 0.30
     Davidson diagonalization with overlap
     ethr =  3.73E-03,  avg # of iterations =  4.6

     negative rho (up, down):  5.355E-04 0.000E+00

     total cpu time spent up to now is      756.3 secs

     total energy              =   -4026.17062452 Ry
     estimated scf accuracy    <     470.39451274 Ry

     iteration #  4     ecut=    60.00 Ry     beta= 0.30
     Davidson diagonalization with overlap
     ethr =  3.73E-03,  avg # of iterations =  3.7

     negative rho (up, down):  4.293E-04 0.000E+00

     total cpu time spent up to now is      964.0 secs

     total energy              =   -4030.13394389 Ry
     estimated scf accuracy    <      85.31052801 Ry

     iteration #  5     ecut=    60.00 Ry     beta= 0.30
     Davidson diagonalization with overlap
     ethr =  3.73E-03,  avg # of iterations =  2.1

     negative rho (up, down):  4.443E-04 0.000E+00

     total cpu time spent up to now is     1162.1 secs

     total energy              =   -4032.92063366 Ry
     estimated scf accuracy    <      16.96638614 Ry

     iteration #  6     ecut=    60.00 Ry     beta= 0.30
     Davidson diagonalization with overlap
     ethr =  3.73E-03,  avg # of iterations =  1.0

     negative rho (up, down):  4.672E-04 0.000E+00

     total cpu time spent up to now is     1346.4 secs

     total energy              =   -4033.32476751 Ry
     estimated scf accuracy    <       4.30492801 Ry

     iteration #  7     ecut=    60.00 Ry     beta= 0.30
     Davidson diagonalization with overlap
     ethr =  1.62E-03,  avg # of iterations =  1.7

     negative rho (up, down):  4.869E-04 0.000E+00

     total cpu time spent up to now is     1538.5 secs

     total energy              =   -4033.38398403 Ry
     estimated scf accuracy    <       2.35730940 Ry

     iteration #  8     ecut=    60.00 Ry     beta= 0.30
     Davidson diagonalization with overlap
     ethr =  8.86E-04,  avg # of iterations =  1.2

     negative rho (up, down):  5.318E-04 0.000E+00

     total cpu time spent up to now is     1724.3 secs

     total energy              =   -4033.32282056 Ry
     estimated scf accuracy    <       4.49746997 Ry

     iteration #  9     ecut=    60.00 Ry     beta= 0.30
     Davidson diagonalization with overlap
     ethr =  8.86E-04,  avg # of iterations =  1.5

     negative rho (up, down):  5.714E-04 0.000E+00

     total cpu time spent up to now is     1915.2 secs

     total energy              =   -4033.31341829 Ry
     estimated scf accuracy    <       1.54502832 Ry

     iteration # 10     ecut=    60.00 Ry     beta= 0.30
     Davidson diagonalization with overlap
     ethr =  5.81E-04,  avg # of iterations =  1.7

     negative rho (up, down):  6.601E-04 0.000E+00

     total cpu time spent up to now is     2107.1 secs

     total energy              =   -4033.28004595 Ry
     estimated scf accuracy    <       1.11524303 Ry

     iteration # 11     ecut=    60.00 Ry     beta= 0.30
     Davidson diagonalization with overlap
     ethr =  4.19E-04,  avg # of iterations =  3.8

     negative rho (up, down):  7.199E-04 0.000E+00

     total cpu time spent up to now is     2306.5 secs

     total energy              =   -4033.29988227 Ry
     estimated scf accuracy    <       0.49381723 Ry

     iteration # 12     ecut=    60.00 Ry     beta= 0.30
     Davidson diagonalization with overlap
     ethr =  1.86E-04,  avg # of iterations =  5.8

     negative rho (up, down):  7.306E-04 0.000E+00

     total cpu time spent up to now is     2520.0 secs

     total energy              =   -4033.29641953 Ry
     estimated scf accuracy    <       0.46991090 Ry

     iteration # 13     ecut=    60.00 Ry     beta= 0.30
     Davidson diagonalization with overlap
     ethr =  1.77E-04,  avg # of iterations =  1.4

     negative rho (up, down):  7.171E-04 0.000E+00

     total cpu time spent up to now is     2709.3 secs

     total energy              =   -4033.27732062 Ry
     estimated scf accuracy    <       1.31818699 Ry

     iteration # 14     ecut=    60.00 Ry     beta= 0.30
     Davidson diagonalization with overlap
     ethr =  1.77E-04,  avg # of iterations =  1.3

     negative rho (up, down):  7.662E-04 0.000E+00

     total cpu time spent up to now is     2896.5 secs

     total energy              =   -4033.30299366 Ry
     estimated scf accuracy    <       0.06683173 Ry

     iteration # 15     ecut=    60.00 Ry     beta= 0.30
     Davidson diagonalization with overlap
     c_bands:  1 eigenvalues not converged
     c_bands:  1 eigenvalues not converged
     c_bands:  1 eigenvalues not converged
     ethr =  2.51E-05,  avg # of iterations = 10.9

     negative rho (up, down):  8.167E-04 0.000E+00

     total cpu time spent up to now is     3131.3 secs

     total energy              =   -4033.30470856 Ry
     estimated scf accuracy    <       0.04244758 Ry

     iteration # 16     ecut=    60.00 Ry     beta= 0.30
     Davidson diagonalization with overlap
     ethr =  1.60E-05,  avg # of iterations =  3.1

     negative rho (up, down):  8.614E-04 0.000E+00

     total cpu time spent up to now is     3328.4 secs

     total energy              =   -4033.30490486 Ry
     estimated scf accuracy    <       0.02712721 Ry

     iteration # 17     ecut=    60.00 Ry     beta= 0.30
     Davidson diagonalization with overlap
     ethr =  1.02E-05,  avg # of iterations =  3.2

     negative rho (up, down):  8.686E-04 0.000E+00

     total cpu time spent up to now is     3529.0 secs

     total energy              =   -4033.30577310 Ry
     estimated scf accuracy    <       0.01723995 Ry

     iteration # 18     ecut=    60.00 Ry     beta= 0.30
     Davidson diagonalization with overlap
     c_bands:  1 eigenvalues not converged
     ethr =  6.48E-06,  avg # of iterations =  5.0

     negative rho (up, down):  8.727E-04 0.000E+00

     total cpu time spent up to now is     3732.7 secs

     total energy              =   -4033.30549227 Ry
     estimated scf accuracy    <       0.09442344 Ry

     iteration # 19     ecut=    60.00 Ry     beta= 0.30
     Davidson diagonalization with overlap
     ethr =  6.48E-06,  avg # of iterations =  1.2

     negative rho (up, down):  8.672E-04 0.000E+00

     total cpu time spent up to now is     3919.0 secs

     total energy              =   -4033.30626530 Ry
     estimated scf accuracy    <       0.01904771 Ry

     iteration # 20     ecut=    60.00 Ry     beta= 0.30
     Davidson diagonalization with overlap
     ethr =  6.48E-06,  avg # of iterations =  1.3

     negative rho (up, down):  8.793E-04 0.000E+00

     total cpu time spent up to now is     4105.9 secs

     total energy              =   -4033.30626222 Ry
     estimated scf accuracy    <       0.00821862 Ry

     iteration # 21     ecut=    60.00 Ry     beta= 0.30
     Davidson diagonalization with overlap
     ethr =  3.09E-06,  avg # of iterations =  4.2

     negative rho (up, down):  8.734E-04 0.000E+00

     total cpu time spent up to now is     4308.6 secs

     total energy              =   -4033.30615848 Ry
     estimated scf accuracy    <       0.04766083 Ry

     iteration # 22     ecut=    60.00 Ry     beta= 0.30
     Davidson diagonalization with overlap
     ethr =  3.09E-06,  avg # of iterations =  1.0

     negative rho (up, down):  8.743E-04 0.000E+00

     total cpu time spent up to now is     4491.3 secs

     total energy              =   -4033.30656229 Ry
     estimated scf accuracy    <       0.00562410 Ry

     iteration # 23     ecut=    60.00 Ry     beta= 0.30
     Davidson diagonalization with overlap
     ethr =  2.11E-06,  avg # of iterations =  1.5

     negative rho (up, down):  8.802E-04 0.000E+00

     total cpu time spent up to now is     4680.0 secs

     total energy              =   -4033.30667360 Ry
     estimated scf accuracy    <       0.00693910 Ry

     iteration # 24     ecut=    60.00 Ry     beta= 0.30
     Davidson diagonalization with overlap
     ethr =  2.11E-06,  avg # of iterations =  1.0

     negative rho (up, down):  8.811E-04 0.000E+00

     total cpu time spent up to now is     4864.2 secs

     total energy              =   -4033.30675367 Ry
     estimated scf accuracy    <       0.00028889 Ry

     iteration # 25     ecut=    60.00 Ry     beta= 0.30
     Davidson diagonalization with overlap
     ethr =  1.09E-07,  avg # of iterations =  1.2

     negative rho (up, down):  8.814E-04 0.000E+00

     total cpu time spent up to now is     5049.3 secs

     total energy              =   -4033.30674989 Ry
     estimated scf accuracy    <       0.00046678 Ry

     iteration # 26     ecut=    60.00 Ry     beta= 0.30
     Davidson diagonalization with overlap
     ethr =  1.09E-07,  avg # of iterations =  1.0

     negative rho (up, down):  8.833E-04 0.000E+00

     total cpu time spent up to now is     5232.5 secs

     total energy              =   -4033.30676992 Ry
     estimated scf accuracy    <       0.00011457 Ry

     iteration # 27     ecut=    60.00 Ry     beta= 0.30
     Davidson diagonalization with overlap
     ethr =  4.31E-08,  avg # of iterations =  1.0

     negative rho (up, down):  8.844E-04 0.000E+00

     total cpu time spent up to now is     5415.1 secs

     total energy              =   -4033.30677263 Ry
     estimated scf accuracy    <       0.00005546 Ry

     iteration # 28     ecut=    60.00 Ry     beta= 0.30
     Davidson diagonalization with overlap
     ethr =  2.08E-08,  avg # of iterations =  1.0

     negative rho (up, down):  8.844E-04 0.000E+00

     total cpu time spent up to now is     5598.0 secs

     total energy              =   -4033.30676572 Ry
     estimated scf accuracy    <       0.00052279 Ry

     iteration # 29     ecut=    60.00 Ry     beta= 0.30
     Davidson diagonalization with overlap
     ethr =  2.08E-08,  avg # of iterations =  1.0

     negative rho (up, down):  8.861E-04 0.000E+00

     total cpu time spent up to now is     5781.5 secs

     total energy              =   -4033.30677281 Ry
     estimated scf accuracy    <       0.00041652 Ry

     iteration # 30     ecut=    60.00 Ry     beta= 0.30
     Davidson diagonalization with overlap
     ethr =  2.08E-08,  avg # of iterations =  1.0

     negative rho (up, down):  8.870E-04 0.000E+00

     total cpu time spent up to now is     5964.7 secs

     total energy              =   -4033.30677514 Ry
     estimated scf accuracy    <       0.00009719 Ry

     iteration # 31     ecut=    60.00 Ry     beta= 0.30
     Davidson diagonalization with overlap
     ethr =  2.08E-08,  avg # of iterations =  1.0

     negative rho (up, down):  8.870E-04 0.000E+00

     total cpu time spent up to now is     6148.1 secs

     total energy              =   -4033.30677444 Ry
     estimated scf accuracy    <       0.00025286 Ry

     iteration # 32     ecut=    60.00 Ry     beta= 0.30
     Davidson diagonalization with overlap
     ethr =  2.08E-08,  avg # of iterations =  1.0

     negative rho (up, down):  8.871E-04 0.000E+00

     total cpu time spent up to now is     6332.3 secs

     total energy              =   -4033.30677520 Ry
     estimated scf accuracy    <       0.00010941 Ry

     iteration # 33     ecut=    60.00 Ry     beta= 0.30
     Davidson diagonalization with overlap
     ethr =  2.08E-08,  avg # of iterations =  1.0

     negative rho (up, down):  8.868E-04 0.000E+00

     total cpu time spent up to now is     6516.8 secs

     total energy              =   -4033.30677214 Ry
     estimated scf accuracy    <       0.00052646 Ry

     iteration # 34     ecut=    60.00 Ry     beta= 0.30
     Davidson diagonalization with overlap
     ethr =  2.08E-08,  avg # of iterations =  1.0

     negative rho (up, down):  8.880E-04 0.000E+00

     total cpu time spent up to now is     6699.6 secs

     total energy              =   -4033.30677765 Ry
     estimated scf accuracy    <       0.00011650 Ry

     iteration # 35     ecut=    60.00 Ry     beta= 0.30
     Davidson diagonalization with overlap
     ethr =  2.08E-08,  avg # of iterations =  1.0

     negative rho (up, down):  8.878E-04 0.000E+00

     total cpu time spent up to now is     6884.0 secs

     total energy              =   -4033.30677866 Ry
     estimated scf accuracy    <       0.00001725 Ry

     iteration # 36     ecut=    60.00 Ry     beta= 0.30
     Davidson diagonalization with overlap
     ethr =  6.49E-09,  avg # of iterations =  1.0

     negative rho (up, down):  8.881E-04 0.000E+00

     total cpu time spent up to now is     7068.1 secs

     total energy              =   -4033.30677904 Ry
     estimated scf accuracy    <       0.00001746 Ry

     iteration # 37     ecut=    60.00 Ry     beta= 0.30
     Davidson diagonalization with overlap
     ethr =  6.49E-09,  avg # of iterations =  1.0

     negative rho (up, down):  8.883E-04 0.000E+00

     total cpu time spent up to now is     7254.4 secs

     total energy              =   -4033.30677972 Ry
     estimated scf accuracy    <       0.00000403 Ry

     iteration # 38     ecut=    60.00 Ry     beta= 0.30
     Davidson diagonalization with overlap
     ethr =  1.51E-09,  avg # of iterations =  1.0

     negative rho (up, down):  8.882E-04 0.000E+00

     total cpu time spent up to now is     7437.9 secs

     total energy              =   -4033.30677950 Ry
     estimated scf accuracy    <       0.00001919 Ry

     iteration # 39     ecut=    60.00 Ry     beta= 0.30
     Davidson diagonalization with overlap
     ethr =  1.51E-09,  avg # of iterations =  1.0

     negative rho (up, down):  8.885E-04 0.000E+00

     total cpu time spent up to now is     7622.1 secs

     total energy              =   -4033.30677983 Ry
     estimated scf accuracy    <       0.00001899 Ry

     iteration # 40     ecut=    60.00 Ry     beta= 0.30
     Davidson diagonalization with overlap
     ethr =  1.51E-09,  avg # of iterations =  1.0

     negative rho (up, down):  8.886E-04 0.000E+00

     total cpu time spent up to now is     7805.7 secs

     total energy              =   -4033.30678001 Ry
     estimated scf accuracy    <       0.00000302 Ry

     iteration # 41     ecut=    60.00 Ry     beta= 0.30
     Davidson diagonalization with overlap
     ethr =  1.13E-09,  avg # of iterations =  1.0

     negative rho (up, down):  8.888E-04 0.000E+00

     total cpu time spent up to now is     7988.7 secs

     total energy              =   -4033.30678005 Ry
     estimated scf accuracy    <       0.00000472 Ry

     iteration # 42     ecut=    60.00 Ry     beta= 0.30
     Davidson diagonalization with overlap
     ethr =  1.13E-09,  avg # of iterations =  1.0

     negative rho (up, down):  8.890E-04 0.000E+00

     total cpu time spent up to now is     8171.9 secs

     total energy              =   -4033.30678008 Ry
     estimated scf accuracy    <       0.00000399 Ry

     iteration # 43     ecut=    60.00 Ry     beta= 0.30
     Davidson diagonalization with overlap
     ethr =  1.13E-09,  avg # of iterations =  1.0

     negative rho (up, down):  8.888E-04 0.000E+00

     total cpu time spent up to now is     8355.6 secs

     total energy              =   -4033.30677989 Ry
     estimated scf accuracy    <       0.00001314 Ry

     iteration # 44     ecut=    60.00 Ry     beta= 0.30
     Davidson diagonalization with overlap
     ethr =  1.13E-09,  avg # of iterations =  1.0

     negative rho (up, down):  8.890E-04 0.000E+00

     total cpu time spent up to now is     8541.4 secs

     total energy              =   -4033.30677990 Ry
     estimated scf accuracy    <       0.00001988 Ry

     iteration # 45     ecut=    60.00 Ry     beta= 0.30
     Davidson diagonalization with overlap
     ethr =  1.13E-09,  avg # of iterations =  1.0

     negative rho (up, down):  8.891E-04 0.000E+00

     total cpu time spent up to now is     8725.6 secs

     total energy              =   -4033.30678017 Ry
     estimated scf accuracy    <       0.00000124 Ry

     iteration # 46     ecut=    60.00 Ry     beta= 0.30
     Davidson diagonalization with overlap
     ethr =  4.65E-10,  avg # of iterations =  1.0

     negative rho (up, down):  8.891E-04 0.000E+00

     total cpu time spent up to now is     8907.7 secs

     total energy              =   -4033.30678013 Ry
     estimated scf accuracy    <       0.00000159 Ry

     iteration # 47     ecut=    60.00 Ry     beta= 0.30
     Davidson diagonalization with overlap
     ethr =  4.65E-10,  avg # of iterations =  1.0

     negative rho (up, down):  8.894E-04 0.000E+00

     total cpu time spent up to now is     9091.0 secs

     End of self-consistent calculation

          k = 0.0000 0.0000 0.0000 ( 44861 PWs)   bands (ev):

   -19.2847 -19.1542 -18.9080 -18.6766 -18.4272 -18.2028 -18.0874 -18.0509
   -18.0422 -18.0110 -17.9968 -17.9623 -17.7819 -17.3765 -16.6071  -7.5117
    -7.2373  -6.7873  -6.3250  -5.8756  -5.6833  -5.6180  -5.4998  -5.4866
    -5.4221  -5.3123  -5.2835  -5.2413  -5.1608  -5.1504  -5.0548  -5.0420
    -5.0087  -4.9907  -4.9731  -4.9446  -4.9117  -4.8985  -4.8778  -4.7782
    -4.7716  -4.7290  -4.6686  -4.6314  -4.5078  -4.4615  -4.3475  -4.1755
    -4.0263  -3.9720  -3.8342  -3.6727  -3.5388  -3.3853  -3.3074  -3.1369
    -2.9340  -2.8952  -2.8144  -2.7296  -2.6593  -2.6247  -2.5219  -2.5206
    -2.4547  -2.4426  -2.4307  -2.3947  -2.3625  -2.3572  -2.3393  -2.2958
    -2.2437  -2.2351  -2.2066  -2.1852  -2.1576  -2.1180  -2.0908  -2.0466
    -2.0297  -2.0132  -1.9933  -1.9825  -1.9665  -1.9456  -1.9347  -1.9218
    -1.8838  -1.8572  -1.8045  -1.7679  -1.7354  -1.7017  -1.6773  -1.6720
    -1.6591  -1.6316  -1.6225  -1.6107  -1.5916  -1.5726  -1.5527  -1.5107
    -1.4974  -1.4789  -1.4538  -1.4029  -1.3911  -1.3424  -1.3181  -1.2681
    -1.1910  -1.1705  -1.1307  -1.0878  -1.0619  -1.0516  -1.0086  -0.8961
    -0.8394  -0.8186  -0.6649  -0.6492  -0.3989  -0.3455  -0.3086  -0.2024
    -0.1092  -0.0391   0.1501   0.2030   0.3373   0.3882   0.4985   0.6089
     0.7340   0.7865   0.9451   0.9998   1.1464   2.1008   2.5820   3.2087
     3.8768   3.9824   4.1385   4.4463   4.4804   4.5064   4.7792   4.9718
     5.2148   5.4725   5.5836   5.7830   5.9005   6.1703   6.2056   6.4313

          k = 0.0521-0.1691 0.0545 ( 44825 PWs)   bands (ev):

   -19.1569 -19.0351 -18.8083 -18.6089 -18.4061 -18.3702 -18.2966 -18.2220
   -18.1552 -18.0902 -17.9551 -17.8440 -17.7291 -17.3655 -16.6350  -7.1271
    -6.8628  -6.4489  -6.0763  -5.9909  -5.8300  -5.7973  -5.7650  -5.7085
    -5.6002  -5.5486  -5.4704  -5.3042  -5.2040  -5.1525  -5.0555  -5.0082
    -4.9717  -4.9561  -4.9241  -4.8973  -4.8487  -4.8020  -4.7277  -4.6825
    -4.5600  -4.5423  -4.4879  -4.4076  -4.3764  -4.3472  -4.2873  -4.1575
    -4.1087  -3.9919  -3.8592  -3.8037  -3.6092  -3.5336  -3.4615  -3.2615
    -3.1528  -3.0526  -2.9625  -2.8512  -2.8032  -2.7520  -2.6662  -2.6155
    -2.5530  -2.5052  -2.4583  -2.4061  -2.3487  -2.2965  -2.2532  -2.2209
    -2.2072  -2.1726  -2.1404  -2.1159  -2.1092  -2.0826  -2.0709  -2.0480
    -2.0272  -2.0034  -1.9784  -1.9744  -1.9485  -1.9401  -1.9121  -1.8943
    -1.8770  -1.8640  -1.8351  -1.8064  -1.7725  -1.7556  -1.7122  -1.6892
    -1.6697  -1.6555  -1.6447  -1.6223  -1.5901  -1.5853  -1.5532  -1.5219
    -1.4835  -1.4393  -1.4268  -1.3972  -1.3528  -1.3263  -1.2913  -1.2546
    -1.2435  -1.2187  -1.1454  -1.1074  -1.0968  -1.0374  -0.9554  -0.8852
    -0.8383  -0.7956  -0.7646  -0.6967  -0.5449  -0.4901  -0.3664  -0.2380
    -0.1089   0.0324   0.1060   0.2260   0.2750   0.4184   0.5442   0.6733
     0.7878   0.8536   0.9687   1.1099   1.2114   2.1047   2.7448   3.1932
     3.3671   3.7044   3.9967   4.3137   4.7036   5.0563   5.1442   5.2587
     5.3421   5.6015   5.7374   5.8857   6.0262   6.2288   6.3175   6.4009

          k =-0.1042 0.3382-0.1091 ( 44806 PWs)   bands (ev):

   -18.8540 -18.7949 -18.7398 -18.6922 -18.5565 -18.5435 -18.3872 -18.3430
   -18.2461 -18.1460 -17.9521 -17.8094 -17.7025 -17.3549 -16.6634  -6.3042
    -6.2869  -6.1817  -6.0701  -6.0290  -5.9718  -5.9523  -5.7713  -5.7100
    -5.6580  -5.5710  -5.4376  -5.4278  -5.3737  -5.3174  -5.2906  -5.2429
    -4.9773  -4.9405  -4.9046  -4.8948  -4.8534  -4.8246  -4.8163  -4.7757
    -4.7277  -4.5303  -4.4481  -4.4001  -4.3553  -4.2249  -4.1306  -4.0537
    -3.9402  -3.8172  -3.7335  -3.7147  -3.6164  -3.5276  -3.5074  -3.4682
    -3.3974  -3.2612  -3.1246  -2.8613  -2.8591  -2.7563  -2.7345  -2.6655
    -2.5478  -2.5217  -2.4513  -2.4094  -2.3454  -2.3209  -2.2553  -2.2260
    -2.1987  -2.1780  -2.1539  -2.1512  -2.1337  -2.1009  -2.0715  -2.0431
    -2.0334  -2.0297  -1.9859  -1.9737  -1.9447  -1.9406  -1.9292  -1.9074
    -1.9040  -1.8768  -1.8547  -1.8118  -1.8040  -1.7649  -1.7495  -1.7406
    -1.7074  -1.6882  -1.6643  -1.6401  -1.6184  -1.5882  -1.5659  -1.5163
    -1.4864  -1.4180  -1.3838  -1.3024  -1.2725  -1.2531  -1.2328  -1.2122
    -1.1823  -1.1706  -1.1383  -1.1309  -1.1128  -1.0371  -0.9600  -0.9433
    -0.8989  -0.8088  -0.7502  -0.6918  -0.6056  -0.4465  -0.3204  -0.1722
    -0.1384  -0.0317   0.1185   0.2249   0.3425   0.3670   0.4247   0.4467
     0.6218   0.8249   1.0828   1.2822   1.4307   1.5038   2.9065   3.5329
     3.7859   3.9534   4.0748   4.2839   4.4405   4.5267   4.8487   5.1562
     5.6007   5.7915   5.9658   6.0386   6.1412   6.3900   6.6262   6.7225

          k =-0.1547-0.0846 0.2000 ( 44829 PWs)   bands (ev):

   -19.1092 -19.0075 -18.8079 -18.6372 -18.4645 -18.2843 -18.1826 -18.1410
   -18.1023 -18.0383 -17.9838 -17.9239 -17.7550 -17.4018 -16.6127  -7.1666
    -6.9481  -6.5871  -6.2413  -6.1597  -5.9110  -5.8985  -5.8773  -5.6506
    -5.6077  -5.5625  -5.4830  -5.3997  -5.3542  -5.2959  -5.2534  -5.1980
    -5.1184  -5.1038  -5.0721  -5.0205  -4.9729  -4.9009  -4.8762  -4.8487
    -4.7844  -4.7158  -4.6084  -4.4948  -4.3967  -4.2454  -4.1678  -4.0047
    -3.8920  -3.8569  -3.7766  -3.6655  -3.5653  -3.4480  -3.3687  -3.1513
    -3.0876  -2.9977  -2.8724  -2.7593  -2.7345  -2.6448  -2.6216  -2.5102
    -2.4766  -2.4138  -2.3782  -2.3473  -2.3273  -2.2820  -2.2565  -2.2266
    -2.2111  -2.1932  -2.1610  -2.1258  -2.0981  -2.0904  -2.0700  -2.0363
    -2.0263  -1.9938  -1.9860  -1.9733  -1.9592  -1.9554  -1.9421  -1.9357
    -1.9087  -1.8822  -1.8485  -1.8164  -1.7855  -1.7712  -1.7470  -1.7174
    -1.6958  -1.6794  -1.6756  -1.6542  -1.5886  -1.5617  -1.5412  -1.4937
    -1.4765  -1.4504  -1.4203  -1.3876  -1.3701  -1.3473  -1.3353  -1.2830
    -1.2182  -1.1842  -1.1682  -1.1405  -1.0811  -1.0451  -1.0271  -0.8979
    -0.8893  -0.7705  -0.6863  -0.6557  -0.4203  -0.2825  -0.1552  -0.0608
    -0.0034   0.0809   0.1370   0.2841   0.3711   0.4935   0.5844   0.7079
     0.7723   0.8571   0.9201   0.9969   1.1539   2.6849   3.1501   3.6521
     4.0335   4.4755   4.5573   4.6421   4.7250   4.9282   5.2111   5.4370
     5.5324   5.6551   5.7236   5.8778   6.0312   6.0956   6.3060   6.4315

          k =-0.1026-0.2537 0.2545 ( 44738 PWs)   bands (ev):

   -18.9022 -18.8202 -18.6669 -18.5560 -18.5286 -18.4380 -18.4091 -18.3346
   -18.2707 -18.0941 -17.9491 -17.8399 -17.7178 -17.3919 -16.6415  -6.6246
    -6.4397  -6.2814  -6.1741  -6.1214  -6.0609  -6.0210  -5.9562  -5.8661
    -5.7645  -5.6577  -5.5842  -5.4723  -5.3821  -5.2781  -5.1912  -5.1380
    -5.0777  -5.0292  -5.0010  -4.9508  -4.9294  -4.8785  -4.8498  -4.8380
    -4.7630  -4.6882  -4.5585  -4.4783  -4.4479  -4.3221  -4.2366  -4.0804
    -3.9268  -3.8829  -3.8448  -3.6711  -3.6186  -3.5290  -3.4752  -3.3987
    -3.3239  -3.0524  -2.9360  -2.7751  -2.7498  -2.6801  -2.6563  -2.5397
    -2.4651  -2.4292  -2.3986  -2.3209  -2.2894  -2.2426  -2.2056  -2.1874
    -2.1827  -2.1706  -2.1417  -2.1219  -2.1063  -2.0850  -2.0648  -2.0518
    -2.0264  -2.0211  -2.0097  -1.9943  -1.9761  -1.9473  -1.9222  -1.8896
    -1.8698  -1.8538  -1.8295  -1.8123  -1.7713  -1.7497  -1.7367  -1.7154
    -1.6935  -1.6449  -1.6237  -1.5954  -1.5658  -1.5402  -1.5080  -1.4908
    -1.4668  -1.4292  -1.3962  -1.3590  -1.3339  -1.2992  -1.2635  -1.2510
    -1.2255  -1.2023  -1.1724  -1.1471  -1.1096  -1.0476  -1.0258  -0.8880
    -0.8565  -0.8306  -0.7984  -0.7154  -0.5711  -0.4747  -0.3302  -0.2540
    -0.1746  -0.0976   0.1060   0.1443   0.2346   0.5256   0.6840   0.7577
     0.8080   0.9382   1.1010   1.2383   1.2832   1.9301   3.9046   3.9969
     4.1787   4.3113   4.5173   4.6398   4.8072   4.9390   5.1438   5.3480
     5.4887   5.6239   5.7375   5.9016   6.0360   6.3919   6.4355   6.8303

          k =-0.2589 0.2537 0.0909 ( 44738 PWs)   bands (ev):

   -18.8918 -18.8073 -18.6622 -18.5856 -18.5353 -18.4602 -18.4177 -18.3345
   -18.2365 -18.0956 -17.9486 -17.8382 -17.7271 -17.3493 -16.6738  -6.6072
    -6.4036  -6.2865  -6.1625  -6.1038  -6.0817  -6.0212  -5.9503  -5.8928
    -5.8310  -5.7091  -5.6206  -5.5015  -5.3356  -5.2747  -5.1864  -5.0986
    -5.0808  -5.0400  -4.9775  -4.9478  -4.9283  -4.8887  -4.8351  -4.8032
    -4.7504  -4.6964  -4.5614  -4.5449  -4.4152  -4.2738  -4.1923  -4.0853
    -4.0518  -3.8505  -3.7302  -3.6512  -3.5914  -3.5391  -3.4731  -3.4087
    -3.2195  -3.1871  -2.9403  -2.7725  -2.7565  -2.6929  -2.6564  -2.5658
    -2.4733  -2.4392  -2.3883  -2.3311  -2.2727  -2.2473  -2.2145  -2.2004
    -2.1773  -2.1640  -2.1489  -2.1287  -2.1010  -2.0850  -2.0711  -2.0558
    -2.0244  -2.0193  -1.9955  -1.9891  -1.9530  -1.9372  -1.9018  -1.8822
    -1.8689  -1.8482  -1.8201  -1.7881  -1.7806  -1.7460  -1.7326  -1.7222
    -1.6989  -1.6869  -1.6532  -1.6519  -1.6230  -1.5606  -1.5222  -1.5019
    -1.4602  -1.4303  -1.3950  -1.3722  -1.3455  -1.3120  -1.2791  -1.2681
    -1.2232  -1.2140  -1.1673  -1.1284  -1.0872  -1.0054  -0.9816  -0.9437
    -0.9066  -0.8362  -0.7954  -0.7760  -0.6107  -0.4863  -0.2571  -0.1074
    -0.0696   0.0029   0.1345   0.2154   0.3387   0.4580   0.5609   0.7413
     0.7688   0.9042   1.0570   1.1882   1.2860   2.1432   3.7453   3.9608
     4.1103   4.2424   4.5108   4.6912   4.8517   5.0456   5.1394   5.3642
     5.5266   5.6386   5.7586   5.9407   6.0312   6.3544   6.4528   6.7931

          k =-0.2068 0.0846 0.1454 ( 44829 PWs)   bands (ev):

   -19.1053 -19.0028 -18.8091 -18.6456 -18.4586 -18.2988 -18.2263 -18.1302
   -18.0760 -18.0347 -17.9748 -17.9159 -17.7724 -17.3618 -16.6431  -7.1583
    -6.9348  -6.5819  -6.2555  -6.1623  -5.9257  -5.9040  -5.8738  -5.7189
    -5.6125  -5.5274  -5.4841  -5.4256  -5.3848  -5.3172  -5.2058  -5.1453
    -5.1267  -5.0875  -5.0643  -5.0319  -5.0009  -4.9251  -4.8857  -4.8359
    -4.8046  -4.6865  -4.6082  -4.4569  -4.4211  -4.1691  -4.1114  -4.0749
    -3.9166  -3.8235  -3.7059  -3.6011  -3.5538  -3.4704  -3.3151  -3.2047
    -3.1469  -3.0296  -2.8771  -2.7710  -2.7524  -2.6524  -2.6110  -2.5761
    -2.4698  -2.4128  -2.3950  -2.3455  -2.3148  -2.2876  -2.2450  -2.2302
    -2.2045  -2.1690  -2.1538  -2.1252  -2.0988  -2.0775  -2.0608  -2.0261
    -2.0159  -1.9888  -1.9850  -1.9772  -1.9559  -1.9490  -1.9377  -1.9254
    -1.9026  -1.8753  -1.8516  -1.8327  -1.8122  -1.7849  -1.7523  -1.7412
    -1.7221  -1.6897  -1.6621  -1.6287  -1.5942  -1.5532  -1.5270  -1.5116
    -1.4863  -1.4729  -1.4258  -1.4023  -1.3840  -1.3489  -1.3079  -1.2867
    -1.2637  -1.2087  -1.1799  -1.1294  -1.0806  -1.0614  -1.0248  -0.9512
    -0.9216  -0.8111  -0.6815  -0.6470  -0.3770  -0.2499  -0.0885  -0.0177
     0.0625   0.1756   0.2489   0.3418   0.3677   0.4559   0.5570   0.6638
     0.7369   0.8523   0.8973   0.9712   1.1075   2.8988   3.2000   3.6207
     3.9997   4.3412   4.5082   4.5841   4.6843   4.9102   5.1534   5.4535
     5.5052   5.6171   5.6932   5.7991   5.9937   6.1008   6.3138   6.4909

          k = 0.3094 0.1691-0.4000 ( 44682 PWs)   bands (ev):

   -18.8077 -18.7502 -18.7032 -18.6151 -18.5562 -18.4928 -18.3614 -18.1782
   -18.1329 -18.0601 -17.9860 -17.9045 -17.7374 -17.4309 -16.6179  -6.5647
    -6.5294  -6.4727  -6.4066  -6.2810  -6.1892  -6.1674  -6.1224  -5.9887
    -5.9285  -5.7199  -5.6144  -5.5591  -5.5091  -5.3570  -5.3085  -5.2316
    -5.1739  -5.0930  -5.0748  -5.0185  -5.0001  -4.9073  -4.8718  -4.8416
    -4.7884  -4.7181  -4.6325  -4.6065  -4.3422  -4.3307  -4.2221  -4.0022
    -3.9698  -3.8375  -3.7233  -3.6896  -3.6272  -3.4709  -3.3762  -3.3050
    -3.1186  -3.0279  -2.7019  -2.6525  -2.6068  -2.5883  -2.5556  -2.5212
    -2.4057  -2.3609  -2.2784  -2.2645  -2.2510  -2.2345  -2.2160  -2.2059
    -2.1889  -2.1805  -2.1725  -2.1602  -2.1431  -2.1341  -2.1168  -2.1078
    -2.0825  -2.0460  -2.0229  -2.0143  -2.0078  -1.9777  -1.9627  -1.9325
    -1.9134  -1.8972  -1.8556  -1.8257  -1.7798  -1.7459  -1.7328  -1.7077
    -1.6803  -1.6188  -1.6011  -1.5712  -1.5580  -1.5169  -1.4914  -1.4775
    -1.4664  -1.4508  -1.4236  -1.3704  -1.3580  -1.3275  -1.3029  -1.2757
    -1.2541  -1.2222  -1.1658  -1.1486  -1.0961  -1.0710  -1.0386  -1.0294
    -0.8955  -0.7420  -0.6968  -0.6126  -0.5590  -0.2063  -0.1582  -0.0614
     0.0789   0.0923   0.1497   0.2145   0.3575   0.5359   0.6774   0.7126
     0.8453   0.8749   0.9467   1.2540   1.3272   2.1165   4.0308   4.3962
     4.6733   4.7487   4.7882   4.8034   4.9293   5.0083   5.4286   5.6338
     5.7132   5.7683   5.9323   6.1208   6.2308   6.5379   6.7820   7.1486

          k = 0.3615 0.0000-0.3454 ( 44687 PWs)   bands (ev):

   -18.8061 -18.7539 -18.6852 -18.6093 -18.5750 -18.4728 -18.3645 -18.2515
   -18.1380 -18.0339 -17.9599 -17.9004 -17.7496 -17.3880 -16.6492  -6.5816
    -6.5006  -6.3949  -6.3825  -6.3396  -6.2232  -6.1157  -6.1019  -6.0615
    -5.9501  -5.7812  -5.7112  -5.6427  -5.5036  -5.3286  -5.1924  -5.1799
    -5.1459  -5.1071  -5.0746  -4.9741  -4.9594  -4.9083  -4.8671  -4.8367
    -4.7896  -4.7602  -4.6626  -4.4830  -4.4305  -4.3041  -4.1126  -4.0309
    -3.9527  -3.8647  -3.8025  -3.7187  -3.6394  -3.4328  -3.3469  -3.2565
    -3.1173  -3.0455  -2.8802  -2.6656  -2.6397  -2.6002  -2.5572  -2.5204
    -2.4178  -2.3826  -2.2890  -2.2626  -2.2569  -2.2277  -2.2010  -2.1941
    -2.1831  -2.1784  -2.1691  -2.1613  -2.1314  -2.1224  -2.1184  -2.0958
    -2.0655  -2.0360  -2.0067  -1.9925  -1.9759  -1.9633  -1.9477  -1.9097
    -1.8801  -1.8682  -1.8397  -1.8232  -1.8026  -1.7644  -1.7378  -1.6731
    -1.6384  -1.6173  -1.5949  -1.5689  -1.5412  -1.5228  -1.5087  -1.4956
    -1.4709  -1.4382  -1.4123  -1.4074  -1.3461  -1.3241  -1.3074  -1.2921
    -1.2654  -1.2446  -1.2260  -1.2123  -1.1550  -1.0725  -1.0621  -1.0400
    -0.9386  -0.8735  -0.6387  -0.6223  -0.4153  -0.2479  -0.1522  -0.0339
     0.0200   0.1289   0.2107   0.3207   0.4045   0.4856   0.6587   0.7787
     0.8804   0.9177   0.9851   1.1951   1.2436   2.4230   3.6356   4.4411
     4.4798   4.5869   4.6586   4.8738   5.0495   5.2534   5.4597   5.6253
     5.7084   5.8423   5.9421   6.0678   6.2007   6.6549   6.8028   7.0852

          k = 0.2051 0.5073-0.5091 ( 44682 PWs)   bands (ev):

   -18.7859 -18.7344 -18.6858 -18.6225 -18.5790 -18.4856 -18.4565 -18.1661
   -18.1085 -18.0625 -17.9682 -17.8921 -17.7667 -17.3428 -16.6844  -6.5472
    -6.5103  -6.4582  -6.3504  -6.2355  -6.2177  -6.1819  -6.0676  -5.9853
    -5.9560  -5.9229  -5.7497  -5.5965  -5.4547  -5.4129  -5.2914  -5.1692
    -5.1374  -5.0826  -5.0629  -5.0245  -4.9670  -4.9424  -4.8811  -4.8542
    -4.8186  -4.7540  -4.7121  -4.4563  -4.2790  -4.1594  -4.0388  -3.9905
    -3.9424  -3.8231  -3.7386  -3.7106  -3.5916  -3.5027  -3.4433  -3.3985
    -3.2313  -2.9524  -2.7522  -2.6833  -2.6288  -2.6158  -2.5524  -2.5104
    -2.3976  -2.3852  -2.3078  -2.2811  -2.2579  -2.2348  -2.2161  -2.2068
    -2.1924  -2.1917  -2.1746  -2.1632  -2.1484  -2.1268  -2.1198  -2.0875
    -2.0548  -2.0254  -2.0096  -1.9950  -1.9941  -1.9578  -1.9490  -1.9131
    -1.8915  -1.8784  -1.8438  -1.8096  -1.8065  -1.7582  -1.7363  -1.6955
    -1.6855  -1.6718  -1.6285  -1.6048  -1.5843  -1.5379  -1.5328  -1.4920
    -1.4732  -1.4571  -1.4388  -1.3838  -1.3758  -1.3427  -1.3077  -1.2883
    -1.2597  -1.2129  -1.1896  -1.1587  -1.1344  -1.0718  -1.0662  -1.0521
    -0.9515  -0.9408  -0.6687  -0.6340  -0.2709  -0.2297  -0.1139   0.0065
     0.1068   0.1884   0.3252   0.3664   0.5244   0.5408   0.6524   0.7227
     0.7789   0.8979   0.9537   1.1003   1.2247   2.5641   3.6935   4.2468
     4.4181   4.6141   4.7364   4.8072   4.9021   5.1078   5.3276   5.6576
     5.7020   5.8406   5.9242   6.0339   6.3004   6.7178   6.7718   6.8892

     the Fermi energy is     0.4136 ev

!    total energy              =   -4033.30677980 Ry
     total all-electron energy =    -55216.086423 Ry
     estimated scf accuracy    <       0.00000051 Ry
     smearing contrib. (-TS)   =       0.00167397 Ry
     internal energy E=F+TS    =   -4033.30845377 Ry

     The total energy is F=E-TS. E is the sum of the following terms:
     one-electron contribution =  -46862.90376562 Ry
     hartree contribution      =   23659.76319457 Ry
     xc contribution           =    -823.44186745 Ry
     ewald contribution        =   21573.69109720 Ry
     one-center paw contrib.   =   -1580.41711247 Ry

     convergence has been achieved in  47 iterations

     negative rho (up, down):  8.894E-04 0.000E+00

     Forces acting on atoms (cartesian axes, Ry/au):

     atom    1 type  1   force =     0.00044339   -0.00171400   -0.00237090
     atom    2 type  1   force =    -0.00000095    0.00174620    0.00117246
     atom    3 type  1   force =     0.00012852    0.00056511   -0.00027985
     atom    4 type  1   force =    -0.00204105   -0.00028037    0.00133080
     atom    5 type  1   force =     0.00070346    0.00025729    0.00003845
     atom    6 type  1   force =     0.00075366    0.00072149    0.00062678
     atom    7 type  1   force =     0.00005906   -0.00008893   -0.00132028
     atom    8 type  1   force =     0.00030726    0.00013468   -0.00027918
     atom    9 type  1   force =    -0.00002567   -0.00079765    0.00043016
     atom   10 type  1   force =    -0.00083650    0.00011071   -0.00076850
     atom   11 type  1   force =     0.00123380   -0.00556269    0.00762711
     atom   12 type  1   force =     0.00461549    0.00059230   -0.00239139
     atom   13 type  1   force =     0.00351309    0.00494773    0.01473655
     atom   14 type  1   force =    -0.00157036    0.00532148    0.00182665
     atom   15 type  1   force =    -0.01320987   -0.00158987   -0.01999819
     atom   16 type  1   force =     0.00867443   -0.03576039   -0.00264371
     atom   17 type  2   force =     0.00261874   -0.00073033    0.00107497
     atom   18 type  2   force =    -0.00090909    0.00207412    0.00079562
     atom   19 type  2   force =    -0.00069538    0.00156037    0.00134118
     atom   20 type  2   force =     0.00073452   -0.00008971   -0.00011439
     atom   21 type  2   force =     0.00035561    0.00068015    0.00045141
     atom   22 type  2   force =    -0.00022251    0.00042885    0.00062549
     atom   23 type  2   force =     0.00028562    0.00015186    0.00093063
     atom   24 type  2   force =     0.00062744    0.00043969    0.00013848
     atom   25 type  2   force =    -0.00065048    0.00003053    0.00087380
     atom   26 type  2   force =     0.00008165    0.00046493    0.00027694
     atom   27 type  2   force =    -0.00217585   -0.00192516   -0.00025416
     atom   28 type  2   force =     0.00082786   -0.00215859   -0.00199071
     atom   29 type  2   force =     0.01007056    0.00647886    0.01207462
     atom   30 type  2   force =    -0.00405314   -0.02637266   -0.02380648
     atom   31 type  2   force =    -0.00964330    0.05036401    0.00984563

     Total force =     0.081891     Total SCF correction =     0.002536

     BFGS Geometry Optimization
     Energy error            =      0.0E+00 Ry
     Gradient error          =      5.0E-02 Ry/Bohr

     number of scf cycles    =   1
     number of bfgs steps    =   0

     energy             new  =   -4033.3067797986 Ry

     new trust radius        =       0.0522155497 bohr
     new conv_thr            =       0.0000010000 Ry


ATOMIC_POSITIONS (angstrom)
Cu               7.4323817478        2.5963829671       10.0488909537
Cu               8.8395614310        0.1005181786        8.8102014442
Cu              10.3804198726        2.5907065532       10.2197657652
Cu               5.9960596119        5.1478886376       11.5449163666
Cu              10.3404181608        2.5564898911       13.1605467254
Cu               8.9528320893        5.1346079284       11.6857924861
Cu              13.2788546054        2.5739809600       13.3107690257
Cu              11.8891721473        5.1471692877       11.8479855716
Cu              10.4971372252        7.7386830460       16.2972607143
Cu              11.8907863945        5.1559837217       14.8050720670
Cu              13.4044795226        7.6977932851       16.4496311662
Cu              14.8398605235        5.1606993968       14.9670630043
Cu              16.4297564447        7.7472329044       16.6364349936
Cu              14.8572707477        5.1136248844       17.9241271815
Cu              16.0988833755        7.7776036166       19.2281682219
Cu              15.0933279857       10.2702359807       17.9697583113
O                7.4074064913        3.9734045884        8.7580896450
O                7.4592621286        1.2142604826        8.8487732290
O                7.4483144218        3.8619285310       11.5501409586
O               10.3831966265        1.3846101796        8.7273040743
O               10.4139349122        3.8520578274       11.7039199728
O               10.2808130619        1.2678345006       11.6596329819
O               10.4199301574        3.8596230874       14.6472119906
O               10.4216619393        6.4314135023       11.8538795158
O               13.3605037277        3.8727956242       14.8000888590
O               10.4240386817        6.4446970578       14.8115731925
O               16.2692077149        3.8522413232       14.9674589506
O               13.3751219072        6.4450249096       14.9570814078
O               13.4420847495        8.9320202946       17.9222599884
O               13.4070390640        6.4094575001       17.9126894635
O               16.4116351937        6.3651069059       18.0066984283



     Writing config-only to output data dir ./tmp/CuO_111_slab_Ovac.save/ :
     XML data file
     NEW-OLD atomic charge density approx. for the potential

     negative rho (up, down):  8.884E-04 0.000E+00

     total cpu time spent up to now is     9150.4 secs

     Self-consistent Calculation

     iteration #  1     ecut=    60.00 Ry     beta= 0.30
     Davidson diagonalization with overlap
     ethr =  1.00E-06,  avg # of iterations =  5.0

     negative rho (up, down):  8.896E-04 0.000E+00

     total cpu time spent up to now is     9504.9 secs

     total energy              =   -4033.31012417 Ry
     estimated scf accuracy    <       0.00555261 Ry

     iteration #  2     ecut=    60.00 Ry     beta= 0.30
     Davidson diagonalization with overlap
     c_bands:  1 eigenvalues not converged
     c_bands:  1 eigenvalues not converged
     c_bands:  1 eigenvalues not converged
     ethr =  2.09E-06,  avg # of iterations = 16.3

     negative rho (up, down):  8.998E-04 0.000E+00

     total cpu time spent up to now is     9793.1 secs

     total energy              =   -4033.25726148 Ry
     estimated scf accuracy    <       9.38806734 Ry

     iteration #  3     ecut=    60.00 Ry     beta= 0.30
     Davidson diagonalization with overlap
     c_bands:  1 eigenvalues not converged
     c_bands:  1 eigenvalues not converged
     ethr =  2.09E-06,  avg # of iterations = 16.1

     negative rho (up, down):  8.969E-04 0.000E+00

     total cpu time spent up to now is    10065.6 secs

     total energy              =   -4033.31110686 Ry
     estimated scf accuracy    <       0.03585061 Ry

     iteration #  4     ecut=    60.00 Ry     beta= 0.30
     Davidson diagonalization with overlap
     ethr =  2.09E-06,  avg # of iterations =  1.5

     negative rho (up, down):  8.948E-04 0.000E+00

     total cpu time spent up to now is    10254.9 secs

     total energy              =   -4033.31216663 Ry
     estimated scf accuracy    <       0.01122704 Ry

     iteration #  5     ecut=    60.00 Ry     beta= 0.30
     Davidson diagonalization with overlap
     ethr =  2.09E-06,  avg # of iterations =  1.5

     negative rho (up, down):  8.940E-04 0.000E+00

     total cpu time spent up to now is    10445.0 secs

     total energy              =   -4033.31251616 Ry
     estimated scf accuracy    <       0.00125932 Ry

     iteration #  6     ecut=    60.00 Ry     beta= 0.30
     Davidson diagonalization with overlap
     ethr =  4.73E-07,  avg # of iterations =  1.0

     negative rho (up, down):  8.937E-04 0.000E+00

     total cpu time spent up to now is    10628.3 secs

     total energy              =   -4033.31251966 Ry
     estimated scf accuracy    <       0.00153131 Ry

     iteration #  7     ecut=    60.00 Ry     beta= 0.30
     Davidson diagonalization with overlap
     ethr =  4.73E-07,  avg # of iterations =  1.0

     negative rho (up, down):  8.932E-04 0.000E+00

     total cpu time spent up to now is    10813.8 secs

     total energy              =   -4033.31244863 Ry
     estimated scf accuracy    <       0.00654917 Ry

     iteration #  8     ecut=    60.00 Ry     beta= 0.30
     Davidson diagonalization with overlap
     ethr =  4.73E-07,  avg # of iterations =  1.0

     negative rho (up, down):  8.930E-04 0.000E+00

     total cpu time spent up to now is    10996.1 secs

     total energy              =   -4033.31251276 Ry
     estimated scf accuracy    <       0.00079303 Ry

     iteration #  9     ecut=    60.00 Ry     beta= 0.30
     Davidson diagonalization with overlap
     ethr =  2.98E-07,  avg # of iterations =  1.0

     negative rho (up, down):  8.929E-04 0.000E+00

     total cpu time spent up to now is    11180.6 secs

     total energy              =   -4033.31253499 Ry
     estimated scf accuracy    <       0.00012167 Ry

     iteration # 10     ecut=    60.00 Ry     beta= 0.30
     Davidson diagonalization with overlap
     ethr =  4.57E-08,  avg # of iterations =  1.0

     negative rho (up, down):  8.928E-04 0.000E+00

     total cpu time spent up to now is    11364.7 secs

     total energy              =   -4033.31253651 Ry
     estimated scf accuracy    <       0.00008312 Ry

     iteration # 11     ecut=    60.00 Ry     beta= 0.30
     Davidson diagonalization with overlap
     ethr =  3.12E-08,  avg # of iterations =  1.0

     negative rho (up, down):  8.928E-04 0.000E+00

     total cpu time spent up to now is    11548.5 secs

     total energy              =   -4033.31253696 Ry
     estimated scf accuracy    <       0.00003534 Ry

     iteration # 12     ecut=    60.00 Ry     beta= 0.30
     Davidson diagonalization with overlap
     ethr =  1.33E-08,  avg # of iterations =  2.0

     negative rho (up, down):  8.927E-04 0.000E+00

     total cpu time spent up to now is    11745.2 secs

     total energy              =   -4033.31252204 Ry
     estimated scf accuracy    <       0.00258978 Ry

     iteration # 13     ecut=    60.00 Ry     beta= 0.30
     Davidson diagonalization with overlap
     ethr =  1.33E-08,  avg # of iterations =  1.0

     negative rho (up, down):  8.927E-04 0.000E+00

     total cpu time spent up to now is    11928.2 secs

     total energy              =   -4033.31253899 Ry
     estimated scf accuracy    <       0.00004276 Ry

     iteration # 14     ecut=    60.00 Ry     beta= 0.30
     Davidson diagonalization with overlap
     ethr =  1.33E-08,  avg # of iterations =  1.0

     negative rho (up, down):  8.927E-04 0.000E+00

     total cpu time spent up to now is    12110.0 secs

     total energy              =   -4033.31253774 Ry
     estimated scf accuracy    <       0.00005439 Ry

     iteration # 15     ecut=    60.00 Ry     beta= 0.30
     Davidson diagonalization with overlap
     ethr =  1.33E-08,  avg # of iterations =  1.0

     negative rho (up, down):  8.927E-04 0.000E+00

     total cpu time spent up to now is    12292.6 secs

     total energy              =   -4033.31253897 Ry
     estimated scf accuracy    <       0.00002040 Ry

     iteration # 16     ecut=    60.00 Ry     beta= 0.30
     Davidson diagonalization with overlap
     ethr =  7.67E-09,  avg # of iterations =  1.0

     negative rho (up, down):  8.927E-04 0.000E+00

     total cpu time spent up to now is    12476.0 secs

     total energy              =   -4033.31253899 Ry
     estimated scf accuracy    <       0.00000623 Ry

     iteration # 17     ecut=    60.00 Ry     beta= 0.30
     Davidson diagonalization with overlap
     ethr =  2.34E-09,  avg # of iterations =  1.0

     negative rho (up, down):  8.927E-04 0.000E+00

     total cpu time spent up to now is    12660.0 secs

     total energy              =   -4033.31253773 Ry
     estimated scf accuracy    <       0.00010577 Ry

     iteration # 18     ecut=    60.00 Ry     beta= 0.30
     Davidson diagonalization with overlap
     ethr =  2.34E-09,  avg # of iterations =  1.0

     negative rho (up, down):  8.927E-04 0.000E+00

     total cpu time spent up to now is    12843.0 secs

     total energy              =   -4033.31253916 Ry
     estimated scf accuracy    <       0.00000892 Ry

     iteration # 19     ecut=    60.00 Ry     beta= 0.30
     Davidson diagonalization with overlap
     ethr =  2.34E-09,  avg # of iterations =  1.0

     negative rho (up, down):  8.927E-04 0.000E+00

     total cpu time spent up to now is    13027.0 secs

     total energy              =   -4033.31253937 Ry
     estimated scf accuracy    <       0.00000166 Ry

     iteration # 20     ecut=    60.00 Ry     beta= 0.30
     Davidson diagonalization with overlap
     ethr =  6.23E-10,  avg # of iterations =  1.0

     negative rho (up, down):  8.927E-04 0.000E+00

     total cpu time spent up to now is    13210.4 secs

     total energy              =   -4033.31253931 Ry
     estimated scf accuracy    <       0.00000136 Ry

     iteration # 21     ecut=    60.00 Ry     beta= 0.30
     Davidson diagonalization with overlap
     ethr =  5.10E-10,  avg # of iterations =  1.0

     negative rho (up, down):  8.927E-04 0.000E+00

     total cpu time spent up to now is    13393.8 secs

     End of self-consistent calculation

          k = 0.0000 0.0000 0.0000 ( 44861 PWs)   bands (ev):

   -19.2761 -19.1439 -18.8973 -18.6671 -18.4221 -18.1975 -18.0788 -18.0397
   -18.0328 -18.0027 -17.9884 -17.9509 -17.7851 -17.3702 -16.6056  -7.5029
    -7.2272  -6.7778  -6.3165  -5.8702  -5.6738  -5.6094  -5.4901  -5.4785
    -5.4114  -5.3001  -5.2736  -5.2264  -5.1512  -5.1399  -5.0453  -5.0380
    -4.9956  -4.9825  -4.9611  -4.9391  -4.8995  -4.8904  -4.8761  -4.7752
    -4.7638  -4.7212  -4.6619  -4.6348  -4.5015  -4.4522  -4.3515  -4.1688
    -4.0183  -3.9672  -3.8254  -3.6615  -3.5382  -3.3706  -3.3030  -3.1359
    -2.9293  -2.8883  -2.8089  -2.7266  -2.6539  -2.6186  -2.5187  -2.5152
    -2.4464  -2.4318  -2.4231  -2.3880  -2.3561  -2.3534  -2.3318  -2.2891
    -2.2353  -2.2276  -2.1984  -2.1794  -2.1496  -2.1100  -2.0885  -2.0410
    -2.0351  -2.0096  -1.9864  -1.9791  -1.9615  -1.9403  -1.9270  -1.9144
    -1.8800  -1.8511  -1.7988  -1.7606  -1.7295  -1.6954  -1.6699  -1.6674
    -1.6530  -1.6307  -1.6183  -1.6058  -1.5872  -1.5685  -1.5444  -1.5077
    -1.4926  -1.4751  -1.4473  -1.3969  -1.3837  -1.3349  -1.3105  -1.2583
    -1.2024  -1.1771  -1.1319  -1.0921  -1.0588  -1.0403  -1.0014  -0.8829
    -0.8318  -0.8179  -0.6632  -0.6420  -0.4004  -0.3400  -0.3009  -0.1950
    -0.1023  -0.0304   0.1643   0.2112   0.3464   0.3949   0.5052   0.6167
     0.7404   0.7943   0.9533   1.0096   1.1537   2.1096   2.5888   3.2170
     3.8831   3.9954   4.1384   4.4557   4.4867   4.5128   4.7854   4.9743
     5.2180   5.4758   5.5867   5.7862   5.9068   6.1697   6.2153   6.4449

          k = 0.0521-0.1691 0.0545 ( 44825 PWs)   bands (ev):

   -19.1482 -19.0246 -18.7979 -18.6005 -18.3994 -18.3609 -18.2881 -18.2141
   -18.1464 -18.0809 -17.9464 -17.8368 -17.7298 -17.3592 -16.6335  -7.1180
    -6.8520  -6.4398  -6.0693  -5.9826  -5.8198  -5.7912  -5.7577  -5.7010
    -5.5879  -5.5375  -5.4631  -5.2913  -5.1907  -5.1484  -5.0454  -4.9958
    -4.9667  -4.9457  -4.9183  -4.8868  -4.8439  -4.7942  -4.7249  -4.6754
    -4.5504  -4.5307  -4.4743  -4.4097  -4.3716  -4.3374  -4.2794  -4.1508
    -4.1073  -3.9827  -3.8579  -3.7974  -3.6002  -3.5330  -3.4532  -3.2603
    -3.1476  -3.0491  -2.9574  -2.8450  -2.7971  -2.7448  -2.6601  -2.6085
    -2.5498  -2.4986  -2.4514  -2.4037  -2.3432  -2.2889  -2.2467  -2.2147
    -2.1986  -2.1654  -2.1345  -2.1099  -2.1029  -2.0759  -2.0660  -2.0432
    -2.0190  -1.9957  -1.9722  -1.9673  -1.9430  -1.9330  -1.9074  -1.8879
    -1.8707  -1.8570  -1.8292  -1.8012  -1.7684  -1.7499  -1.7074  -1.6871
    -1.6639  -1.6494  -1.6404  -1.6173  -1.5848  -1.5797  -1.5533  -1.5257
    -1.4812  -1.4333  -1.4221  -1.3919  -1.3487  -1.3195  -1.2856  -1.2599
    -1.2394  -1.2095  -1.1492  -1.1154  -1.0897  -1.0238  -0.9496  -0.8802
    -0.8333  -0.7915  -0.7609  -0.6924  -0.5384  -0.4824  -0.3565  -0.2309
    -0.1007   0.0397   0.1153   0.2368   0.2846   0.4262   0.5533   0.6800
     0.7975   0.8625   0.9743   1.1158   1.2192   2.1074   2.7553   3.2080
     3.3760   3.7164   4.0049   4.3210   4.7075   5.0601   5.1538   5.2597
     5.3478   5.6053   5.7399   5.8881   6.0299   6.2356   6.3208   6.4011

          k =-0.1042 0.3382-0.1091 ( 44806 PWs)   bands (ev):

   -18.8452 -18.7844 -18.7298 -18.6830 -18.5493 -18.5338 -18.3820 -18.3323
   -18.2334 -18.1400 -17.9448 -17.8033 -17.7024 -17.3485 -16.6619  -6.2938
    -6.2764  -6.1713  -6.0581  -6.0223  -5.9629  -5.9462  -5.7639  -5.6968
    -5.6521  -5.5684  -5.4326  -5.4125  -5.3686  -5.3077  -5.2783  -5.2350
    -4.9627  -4.9402  -4.8987  -4.8855  -4.8430  -4.8166  -4.8016  -4.7659
    -4.7210  -4.5202  -4.4492  -4.3945  -4.3416  -4.2239  -4.1118  -4.0418
    -3.9445  -3.8169  -3.7335  -3.7042  -3.6134  -3.5235  -3.5040  -3.4618
    -3.3905  -3.2566  -3.1219  -2.8559  -2.8521  -2.7523  -2.7280  -2.6580
    -2.5412  -2.5227  -2.4436  -2.4042  -2.3383  -2.3165  -2.2461  -2.2180
    -2.1934  -2.1697  -2.1495  -2.1449  -2.1265  -2.0943  -2.0649  -2.0369
    -2.0279  -2.0220  -1.9807  -1.9668  -1.9377  -1.9329  -1.9230  -1.9008
    -1.8988  -1.8709  -1.8489  -1.8083  -1.7985  -1.7607  -1.7466  -1.7346
    -1.7008  -1.6817  -1.6581  -1.6398  -1.6175  -1.5824  -1.5661  -1.5131
    -1.4838  -1.4143  -1.3770  -1.3093  -1.2694  -1.2515  -1.2320  -1.2079
    -1.1763  -1.1673  -1.1324  -1.1254  -1.1127  -1.0348  -0.9484  -0.9383
    -0.8986  -0.8037  -0.7416  -0.6780  -0.6025  -0.4408  -0.3114  -0.1583
    -0.1294  -0.0226   0.1223   0.2353   0.3498   0.3748   0.4328   0.4555
     0.6304   0.8398   1.0917   1.2823   1.4372   1.5122   2.9172   3.5406
     3.8016   3.9620   4.0880   4.2952   4.4501   4.5354   4.8539   5.1592
     5.6053   5.7954   5.9696   6.0377   6.1369   6.3924   6.6239   6.7210

          k =-0.1547-0.0846 0.2000 ( 44829 PWs)   bands (ev):

   -19.1004 -18.9971 -18.7978 -18.6271 -18.4577 -18.2781 -18.1759 -18.1325
   -18.0917 -18.0278 -17.9732 -17.9157 -17.7588 -17.3958 -16.6112  -7.1576
    -6.9372  -6.5764  -6.2305  -6.1505  -5.9039  -5.8889  -5.8686  -5.6381
    -5.6004  -5.5552  -5.4748  -5.3872  -5.3468  -5.2875  -5.2461  -5.1865
    -5.1081  -5.0971  -5.0682  -5.0128  -4.9672  -4.8867  -4.8718  -4.8400
    -4.7694  -4.7153  -4.6060  -4.4865  -4.3918  -4.2461  -4.1623  -3.9967
    -3.8857  -3.8497  -3.7723  -3.6576  -3.5576  -3.4414  -3.3621  -3.1495
    -3.0836  -2.9937  -2.8665  -2.7528  -2.7279  -2.6388  -2.6156  -2.5049
    -2.4708  -2.4065  -2.3704  -2.3418  -2.3191  -2.2740  -2.2504  -2.2194
    -2.2006  -2.1864  -2.1549  -2.1307  -2.0920  -2.0853  -2.0636  -2.0281
    -2.0198  -1.9887  -1.9798  -1.9665  -1.9563  -1.9515  -1.9358  -1.9320
    -1.9013  -1.8751  -1.8419  -1.8094  -1.7790  -1.7669  -1.7398  -1.7119
    -1.6897  -1.6736  -1.6722  -1.6464  -1.5862  -1.5579  -1.5360  -1.4881
    -1.4772  -1.4468  -1.4158  -1.3828  -1.3653  -1.3406  -1.3285  -1.2770
    -1.2402  -1.1793  -1.1650  -1.1341  -1.0729  -1.0362  -1.0256  -0.8897
    -0.8863  -0.7592  -0.6872  -0.6490  -0.4222  -0.2775  -0.1480  -0.0562
     0.0008   0.0852   0.1438   0.2945   0.3791   0.5036   0.5923   0.7178
     0.7807   0.8670   0.9282   1.0066   1.1615   2.6877   3.1597   3.6593
     4.0476   4.4849   4.5673   4.6565   4.7337   4.9370   5.2179   5.4428
     5.5345   5.6659   5.7320   5.8834   6.0330   6.1009   6.3102   6.4326

          k =-0.1026-0.2537 0.2545 ( 44738 PWs)   bands (ev):

   -18.8933 -18.8094 -18.6568 -18.5478 -18.5200 -18.4287 -18.4023 -18.3253
   -18.2605 -18.0866 -17.9404 -17.8328 -17.7198 -17.3857 -16.6399  -6.6152
    -6.4280  -6.2708  -6.1648  -6.1135  -6.0504  -6.0117  -5.9452  -5.8529
    -5.7555  -5.6507  -5.5783  -5.4727  -5.3749  -5.2728  -5.1765  -5.1282
    -5.0672  -5.0218  -4.9911  -4.9444  -4.9205  -4.8723  -4.8447  -4.8302
    -4.7488  -4.6743  -4.5493  -4.4715  -4.4402  -4.3150  -4.2347  -4.0787
    -3.9209  -3.8813  -3.8412  -3.6700  -3.6177  -3.5203  -3.4677  -3.3938
    -3.3181  -3.0462  -2.9323  -2.7680  -2.7432  -2.6746  -2.6494  -2.5341
    -2.4575  -2.4260  -2.3910  -2.3131  -2.2862  -2.2395  -2.2009  -2.1817
    -2.1775  -2.1639  -2.1361  -2.1155  -2.0992  -2.0802  -2.0606  -2.0440
    -2.0187  -2.0138  -2.0031  -1.9870  -1.9684  -1.9408  -1.9152  -1.8825
    -1.8678  -1.8471  -1.8235  -1.8051  -1.7637  -1.7415  -1.7299  -1.7074
    -1.6904  -1.6411  -1.6176  -1.5930  -1.5665  -1.5362  -1.5076  -1.4902
    -1.4653  -1.4277  -1.3891  -1.3524  -1.3316  -1.2959  -1.2639  -1.2469
    -1.2260  -1.1995  -1.1832  -1.1368  -1.1105  -1.0309  -1.0185  -0.8910
    -0.8502  -0.8283  -0.7904  -0.7017  -0.5661  -0.4622  -0.3252  -0.2456
    -0.1688  -0.0905   0.1132   0.1503   0.2419   0.5338   0.6919   0.7657
     0.8171   0.9470   1.1122   1.2454   1.2902   1.9407   3.9260   4.0078
     4.1913   4.3199   4.5305   4.6476   4.8152   4.9391   5.1520   5.3587
     5.4974   5.6333   5.7457   5.9041   6.0391   6.3925   6.4331   6.8233

          k =-0.2589 0.2537 0.0909 ( 44738 PWs)   bands (ev):

   -18.8829 -18.7966 -18.6525 -18.5774 -18.5260 -18.4516 -18.4099 -18.3272
   -18.2260 -18.0882 -17.9401 -17.8311 -17.7271 -17.3431 -16.6723  -6.5979
    -6.3934  -6.2780  -6.1542  -6.0967  -6.0716  -6.0132  -5.9452  -5.8822
    -5.8233  -5.6982  -5.6117  -5.4920  -5.3295  -5.2665  -5.1794  -5.0966
    -5.0680  -5.0334  -4.9651  -4.9418  -4.9167  -4.8800  -4.8256  -4.7909
    -4.7386  -4.6913  -4.5544  -4.5442  -4.3975  -4.2658  -4.1885  -4.0830
    -4.0495  -3.8504  -3.7184  -3.6395  -3.5854  -3.5378  -3.4682  -3.4077
    -3.2148  -3.1810  -2.9373  -2.7663  -2.7493  -2.6867  -2.6508  -2.5597
    -2.4701  -2.4323  -2.3827  -2.3292  -2.2686  -2.2396  -2.2083  -2.1942
    -2.1705  -2.1571  -2.1429  -2.1216  -2.0958  -2.0774  -2.0637  -2.0495
    -2.0207  -2.0129  -1.9925  -1.9833  -1.9458  -1.9314  -1.8948  -1.8723
    -1.8569  -1.8387  -1.8123  -1.7828  -1.7741  -1.7405  -1.7247  -1.7190
    -1.6941  -1.6803  -1.6509  -1.6471  -1.6166  -1.5686  -1.5166  -1.4988
    -1.4562  -1.4263  -1.3953  -1.3748  -1.3399  -1.3077  -1.2756  -1.2640
    -1.2351  -1.2159  -1.1717  -1.1259  -1.0747  -0.9960  -0.9715  -0.9388
    -0.9015  -0.8286  -0.7870  -0.7686  -0.6032  -0.4785  -0.2485  -0.1010
    -0.0577   0.0079   0.1423   0.2233   0.3429   0.4624   0.5710   0.7507
     0.7787   0.9136   1.0678   1.1941   1.2939   2.1552   3.7623   3.9705
     4.1198   4.2527   4.5211   4.6979   4.8607   5.0529   5.1449   5.3620
     5.5384   5.6454   5.7655   5.9390   6.0360   6.3598   6.4516   6.7934

          k =-0.2068 0.0846 0.1454 ( 44829 PWs)   bands (ev):

   -19.0966 -18.9924 -18.7987 -18.6358 -18.4526 -18.2921 -18.2181 -18.1219
   -18.0659 -18.0261 -17.9648 -17.9078 -17.7734 -17.3557 -16.6416  -7.1495
    -6.9248  -6.5731  -6.2474  -6.1529  -5.9203  -5.8949  -5.8622  -5.7082
    -5.6071  -5.5185  -5.4782  -5.4151  -5.3759  -5.3092  -5.1956  -5.1397
    -5.1171  -5.0803  -5.0574  -5.0220  -4.9894  -4.9191  -4.8716  -4.8272
    -4.7974  -4.6857  -4.6017  -4.4571  -4.4125  -4.1640  -4.1035  -4.0705
    -3.9071  -3.8138  -3.7013  -3.5906  -3.5455  -3.4694  -3.3073  -3.2004
    -3.1432  -3.0260  -2.8690  -2.7645  -2.7462  -2.6460  -2.6070  -2.5714
    -2.4656  -2.4045  -2.3885  -2.3401  -2.3112  -2.2814  -2.2388  -2.2225
    -2.1980  -2.1616  -2.1463  -2.1182  -2.0927  -2.0726  -2.0537  -2.0218
    -2.0138  -1.9824  -1.9775  -1.9700  -1.9517  -1.9407  -1.9327  -1.9165
    -1.8954  -1.8670  -1.8488  -1.8271  -1.8084  -1.7787  -1.7465  -1.7363
    -1.7148  -1.6838  -1.6587  -1.6224  -1.5901  -1.5475  -1.5199  -1.5071
    -1.4891  -1.4722  -1.4223  -1.3977  -1.3783  -1.3421  -1.3014  -1.2872
    -1.2633  -1.2163  -1.1894  -1.1204  -1.0701  -1.0549  -1.0262  -0.9427
    -0.9124  -0.7970  -0.6816  -0.6409  -0.3742  -0.2453  -0.0825  -0.0142
     0.0692   0.1815   0.2567   0.3519   0.3757   0.4645   0.5645   0.6728
     0.7469   0.8613   0.9044   0.9806   1.1153   2.9035   3.2100   3.6350
     4.0121   4.3462   4.5136   4.5844   4.6917   4.9166   5.1621   5.4632
     5.5080   5.6250   5.7021   5.8079   5.9970   6.1039   6.3170   6.4934

          k = 0.3094 0.1691-0.4000 ( 44682 PWs)   bands (ev):

   -18.7981 -18.7400 -18.6954 -18.6051 -18.5439 -18.4838 -18.3586 -18.1698
   -18.1220 -18.0504 -17.9761 -17.8967 -17.7419 -17.4251 -16.6163  -6.5560
    -6.5210  -6.4610  -6.3978  -6.2667  -6.1789  -6.1559  -6.1075  -5.9794
    -5.9173  -5.7171  -5.6006  -5.5629  -5.5021  -5.3501  -5.3020  -5.2253
    -5.1668  -5.0857  -5.0683  -5.0090  -4.9866  -4.9037  -4.8639  -4.8258
    -4.7703  -4.7133  -4.6222  -4.6093  -4.3393  -4.3253  -4.2178  -3.9935
    -3.9612  -3.8329  -3.7182  -3.6781  -3.6235  -3.4651  -3.3827  -3.2986
    -3.1184  -3.0247  -2.6932  -2.6456  -2.5996  -2.5809  -2.5480  -2.5132
    -2.3974  -2.3557  -2.2714  -2.2601  -2.2469  -2.2285  -2.2102  -2.2001
    -2.1817  -2.1753  -2.1704  -2.1524  -2.1356  -2.1284  -2.1078  -2.1004
    -2.0749  -2.0385  -2.0217  -2.0138  -2.0002  -1.9697  -1.9614  -1.9254
    -1.9063  -1.8895  -1.8485  -1.8197  -1.7730  -1.7376  -1.7223  -1.7012
    -1.6766  -1.6167  -1.5937  -1.5652  -1.5539  -1.5101  -1.4856  -1.4786
    -1.4598  -1.4468  -1.4199  -1.3693  -1.3538  -1.3305  -1.3024  -1.2830
    -1.2546  -1.2257  -1.1584  -1.1464  -1.0963  -1.0619  -1.0285  -1.0206
    -0.8741  -0.7379  -0.6913  -0.6160  -0.5522  -0.2156  -0.1584  -0.0545
     0.0843   0.0988   0.1552   0.2217   0.3646   0.5442   0.6846   0.7205
     0.8532   0.8847   0.9549   1.2616   1.3367   2.1437   4.0606   4.4080
     4.6884   4.7589   4.7966   4.8055   4.9394   5.0162   5.4437   5.6431
     5.7208   5.7754   5.9378   6.1196   6.2295   6.5419   6.7795   7.1510

          k = 0.3615 0.0000-0.3454 ( 44687 PWs)   bands (ev):

   -18.7965 -18.7436 -18.6774 -18.5986 -18.5643 -18.4655 -18.3587 -18.2436
   -18.1288 -18.0247 -17.9499 -17.8924 -17.7520 -17.3821 -16.6477  -6.5726
    -6.4897  -6.3871  -6.3735  -6.3302  -6.2112  -6.1044  -6.0927  -6.0502
    -5.9453  -5.7759  -5.7035  -5.6273  -5.5037  -5.3239  -5.1837  -5.1718
    -5.1366  -5.0997  -5.0671  -4.9626  -4.9520  -4.8987  -4.8617  -4.8280
    -4.7805  -4.7463  -4.6524  -4.4773  -4.4298  -4.2963  -4.1076  -4.0270
    -3.9472  -3.8546  -3.7982  -3.7147  -3.6366  -3.4278  -3.3413  -3.2488
    -3.1129  -3.0394  -2.8763  -2.6584  -2.6330  -2.5932  -2.5508  -2.5139
    -2.4102  -2.3780  -2.2833  -2.2565  -2.2518  -2.2213  -2.1970  -2.1884
    -2.1762  -2.1719  -2.1629  -2.1543  -2.1240  -2.1151  -2.1114  -2.0900
    -2.0565  -2.0295  -2.0023  -1.9892  -1.9721  -1.9603  -1.9401  -1.9021
    -1.8728  -1.8598  -1.8319  -1.8158  -1.7977  -1.7572  -1.7317  -1.6702
    -1.6331  -1.6127  -1.5887  -1.5648  -1.5402  -1.5176  -1.5049  -1.4915
    -1.4664  -1.4359  -1.4161  -1.4039  -1.3424  -1.3205  -1.3126  -1.2879
    -1.2797  -1.2386  -1.2180  -1.2053  -1.1576  -1.0640  -1.0540  -1.0336
    -0.9252  -0.8640  -0.6330  -0.6219  -0.4138  -0.2380  -0.1446  -0.0272
     0.0256   0.1359   0.2166   0.3253   0.4104   0.4901   0.6617   0.7854
     0.8898   0.9281   0.9934   1.2032   1.2555   2.4427   3.6640   4.4472
     4.4893   4.5975   4.6649   4.8785   5.0567   5.2602   5.4670   5.6362
     5.7237   5.8494   5.9473   6.0782   6.2030   6.6594   6.8031   7.0828

          k = 0.2051 0.5073-0.5091 ( 44682 PWs)   bands (ev):

   -18.7759 -18.7240 -18.6781 -18.6093 -18.5714 -18.4805 -18.4489 -18.1576
   -18.0999 -18.0545 -17.9585 -17.8841 -17.7665 -17.3368 -16.6829  -6.5388
    -6.5004  -6.4470  -6.3411  -6.2268  -6.2091  -6.1708  -6.0628  -5.9829
    -5.9483  -5.9169  -5.7394  -5.5838  -5.4472  -5.4142  -5.2827  -5.1622
    -5.1297  -5.0732  -5.0554  -5.0161  -4.9578  -4.9175  -4.8706  -4.8518
    -4.8133  -4.7443  -4.7026  -4.4511  -4.2737  -4.1531  -4.0323  -3.9885
    -3.9400  -3.8094  -3.7309  -3.7069  -3.5866  -3.4952  -3.4325  -3.3977
    -3.2267  -2.9483  -2.7464  -2.6752  -2.6219  -2.6088  -2.5462  -2.5032
    -2.3933  -2.3779  -2.3029  -2.2737  -2.2529  -2.2268  -2.2078  -2.2014
    -2.1883  -2.1864  -2.1674  -2.1549  -2.1404  -2.1202  -2.1136  -2.0800
    -2.0529  -2.0227  -2.0035  -1.9924  -1.9873  -1.9503  -1.9485  -1.9065
    -1.8866  -1.8668  -1.8340  -1.8072  -1.7993  -1.7543  -1.7309  -1.6859
    -1.6801  -1.6654  -1.6253  -1.6026  -1.5773  -1.5416  -1.5288  -1.4873
    -1.4741  -1.4534  -1.4354  -1.3825  -1.3688  -1.3361  -1.3019  -1.2943
    -1.2788  -1.2100  -1.1885  -1.1539  -1.1412  -1.0723  -1.0549  -1.0414
    -0.9358  -0.9187  -0.6650  -0.6283  -0.2676  -0.2162  -0.1050   0.0119
     0.1148   0.1953   0.3323   0.3738   0.5280   0.5449   0.6579   0.7304
     0.7839   0.9062   0.9632   1.1087   1.2371   2.5899   3.6943   4.2589
     4.4266   4.6147   4.7459   4.8188   4.9104   5.1200   5.3342   5.6743
     5.7121   5.8483   5.9357   6.0418   6.3087   6.7232   6.7770   6.8863

     the Fermi energy is     0.4210 ev

!    total energy              =   -4033.31253880 Ry
     total all-electron energy =    -55216.092182 Ry
     estimated scf accuracy    <       0.00000064 Ry
     smearing contrib. (-TS)   =       0.00159115 Ry
     internal energy E=F+TS    =   -4033.31412996 Ry

     The total energy is F=E-TS. E is the sum of the following terms:
     one-electron contribution =  -46868.76521113 Ry
     hartree contribution      =   23662.78240128 Ry
     xc contribution           =    -823.44569754 Ry
     ewald contribution        =   21576.53115768 Ry
     one-center paw contrib.   =   -1580.41678026 Ry

     convergence has been achieved in  21 iterations

     negative rho (up, down):  8.927E-04 0.000E+00

     Forces acting on atoms (cartesian axes, Ry/au):

     atom    1 type  1   force =     0.00006953   -0.00096305   -0.00127538
     atom    2 type  1   force =    -0.00015097    0.00140832    0.00081171
     atom    3 type  1   force =    -0.00016233    0.00036703   -0.00040170
     atom    4 type  1   force =    -0.00160397   -0.00025172    0.00083219
     atom    5 type  1   force =     0.00067841    0.00045236    0.00014536
     atom    6 type  1   force =     0.00046329    0.00061079    0.00057299
     atom    7 type  1   force =    -0.00006557    0.00004223   -0.00096062
     atom    8 type  1   force =     0.00041252    0.00004114   -0.00019443
     atom    9 type  1   force =    -0.00020339   -0.00083620    0.00047843
     atom   10 type  1   force =    -0.00072430   -0.00012604   -0.00098802
     atom   11 type  1   force =     0.00137095   -0.00361046    0.00604031
     atom   12 type  1   force =     0.00131109   -0.00154141   -0.00315283
     atom   13 type  1   force =     0.00294927    0.00702206    0.00780680
     atom   14 type  1   force =     0.00160043    0.00387268    0.00192406
     atom   15 type  1   force =    -0.01412811    0.00446561   -0.01373863
     atom   16 type  1   force =     0.00033898   -0.03043432   -0.00217521
     atom   17 type  2   force =     0.00175524   -0.00019071    0.00097838
     atom   18 type  2   force =    -0.00049631    0.00107545    0.00024067
     atom   19 type  2   force =    -0.00051322    0.00113189    0.00098392
     atom   20 type  2   force =     0.00059833    0.00018571   -0.00006170
     atom   21 type  2   force =     0.00050847    0.00063699    0.00051946
     atom   22 type  2   force =    -0.00019292    0.00043152    0.00057825
     atom   23 type  2   force =     0.00026376    0.00021204    0.00078058
     atom   24 type  2   force =     0.00076002    0.00042521    0.00015246
     atom   25 type  2   force =     0.00007015    0.00059349    0.00098591
     atom   26 type  2   force =     0.00015341    0.00056633    0.00011087
     atom   27 type  2   force =    -0.00140153   -0.00373746    0.00096861
     atom   28 type  2   force =     0.00108678   -0.00187056   -0.00167833
     atom   29 type  2   force =     0.01026808    0.00649718    0.01193279
     atom   30 type  2   force =    -0.00377930   -0.01906936   -0.01860822
     atom   31 type  2   force =    -0.00123681    0.03259326    0.00639132

     Total force =     0.060955     Total SCF correction =     0.003005
     Energy error            =      5.8E-03 Ry
     Gradient error          =      3.3E-02 Ry/Bohr

     number of scf cycles    =   2
     number of bfgs steps    =   1

     energy             old  =   -4033.3067797986 Ry
     energy             new  =   -4033.3125388015 Ry

     CASE: energy            _new < energy            _old

     new trust radius        =       0.0574371046 bohr
     new conv_thr            =       0.0000003259 Ry


ATOMIC_POSITIONS (angstrom)
Cu               7.4324770663        2.5954819233       10.0476881300
Cu               8.8394455317        0.1017638423        8.8109351184
Cu              10.3803075131        2.5910416084       10.2194311198
Cu               5.9946359471        5.1476689988       11.5456807417
Cu              10.3410051773        2.5568612600       13.1606618761
Cu               8.9532588389        5.1351447794       11.6862913727
Cu              13.2788098994        2.5740049349       13.3099071261
Cu              11.8895176895        5.1472135969       11.8478099935
Cu              10.4969787683        7.7379660727       16.2976684499
Cu              11.8901515778        5.1558975141       14.8042413867
Cu              13.4056480047        7.6944970102       16.4549868574
Cu              14.8413032470        5.1595730382       14.9644180219
Cu              16.4323514695        7.7530880416       16.6438188712
Cu              14.8583497826        5.1170994748       17.9257760894
Cu              16.0867948823        7.7808787204       19.2157358195
Cu              15.0944092727       10.2435038176       17.9678393915
O                7.4090008894        3.9731891495        8.7589419444
O                7.4587953380        1.2152818386        8.8490331748
O                7.4478548882        3.8629445493       11.5510227120
O               10.3837251567        1.3847441500        8.7272459166
O               10.4143586363        3.8526108632       11.7043611982
O               10.2806440046        1.2682061244       11.6601357811
O               10.4201595285        3.8598001237       14.6478988881
O               10.4223043609        6.4317813106       11.8540095800
O               13.3604959593        3.8732537879       14.8009278882
O               10.4241640967        6.4451755176       14.8116844627
O               16.2679265847        3.8491920067       14.9681779233
O               13.3760339649        6.4433856143       14.9556054690
O               13.4509149552        8.9376177529       17.9325569428
O               13.4037561844        6.3923323225       17.8961609854
O               16.4097734473        6.3948778093       18.0125334244



     Writing config-only to output data dir ./tmp/CuO_111_slab_Ovac.save/ :
     XML data file
     NEW-OLD atomic charge density approx. for the potential

     negative rho (up, down):  8.921E-04 0.000E+00

     total cpu time spent up to now is    13453.0 secs

     Self-consistent Calculation

     iteration #  1     ecut=    60.00 Ry     beta= 0.30
     Davidson diagonalization with overlap
     ethr =  1.00E-06,  avg # of iterations =  6.6

     negative rho (up, down):  8.945E-04 0.000E+00

     total cpu time spent up to now is    13829.5 secs

     total energy              =   -4033.31614266 Ry
     estimated scf accuracy    <       0.00442017 Ry

     iteration #  2     ecut=    60.00 Ry     beta= 0.30
     Davidson diagonalization with overlap
     ethr =  1.66E-06,  avg # of iterations = 10.0

     negative rho (up, down):  8.960E-04 0.000E+00

     total cpu time spent up to now is    14095.5 secs

     total energy              =   -4033.28899816 Ry
     estimated scf accuracy    <       4.26387411 Ry

     iteration #  3     ecut=    60.00 Ry     beta= 0.30
     Davidson diagonalization with overlap
     c_bands:  1 eigenvalues not converged
     ethr =  1.66E-06,  avg # of iterations = 14.4

     negative rho (up, down):  8.962E-04 0.000E+00

     total cpu time spent up to now is    14356.8 secs

     total energy              =   -4033.31394003 Ry
     estimated scf accuracy    <       0.26977052 Ry

     iteration #  4     ecut=    60.00 Ry     beta= 0.30
     Davidson diagonalization with overlap
     c_bands:  1 eigenvalues not converged
     ethr =  1.66E-06,  avg # of iterations =  6.6

     negative rho (up, down):  8.969E-04 0.000E+00

     total cpu time spent up to now is    14573.9 secs

     total energy              =   -4033.31653247 Ry
     estimated scf accuracy    <       0.06788455 Ry

     iteration #  5     ecut=    60.00 Ry     beta= 0.30
     Davidson diagonalization with overlap
     ethr =  1.66E-06,  avg # of iterations =  1.4

     negative rho (up, down):  8.976E-04 0.000E+00

     total cpu time spent up to now is    14761.4 secs

     total energy              =   -4033.31763501 Ry
     estimated scf accuracy    <       0.00480886 Ry

     iteration #  6     ecut=    60.00 Ry     beta= 0.30
     Davidson diagonalization with overlap
     ethr =  1.66E-06,  avg # of iterations =  1.3

     negative rho (up, down):  8.982E-04 0.000E+00

     total cpu time spent up to now is    14948.3 secs

     total energy              =   -4033.31773936 Ry
     estimated scf accuracy    <       0.00218839 Ry

     iteration #  7     ecut=    60.00 Ry     beta= 0.30
     Davidson diagonalization with overlap
     ethr =  8.23E-07,  avg # of iterations =  1.2

     negative rho (up, down):  8.985E-04 0.000E+00

     total cpu time spent up to now is    15136.1 secs

     total energy              =   -4033.31774397 Ry
     estimated scf accuracy    <       0.00086941 Ry

     iteration #  8     ecut=    60.00 Ry     beta= 0.30
     Davidson diagonalization with overlap
     ethr =  3.27E-07,  avg # of iterations =  1.0

     negative rho (up, down):  8.988E-04 0.000E+00

[...]
    -1.9546  -1.9093  -1.8953  -1.8730  -1.8405  -1.8314  -1.7986  -1.7861
    -1.7471  -1.7266  -1.7131  -1.6912  -1.6605  -1.6116  -1.5791  -1.5633
    -1.5216  -1.4902  -1.4314  -1.4202  -1.3545  -1.3054  -1.2971  -1.2740
    -1.2339  -1.2143  -1.2043  -1.1697  -1.1274  -1.0407  -1.0106  -0.9558
    -0.9323  -0.8191  -0.7645  -0.6550  -0.6099  -0.4651  -0.3262  -0.1579
    -0.1007  -0.0183   0.0603   0.2412   0.3355   0.3643   0.4284   0.4386
     0.6265   0.8600   1.0318   1.2738   1.4628   1.8559   2.9284   3.5190
     3.8715   3.9654   4.0685   4.3907   4.5190   4.6769   4.8398   5.1268
     5.6088   5.8340   5.9526   6.0245   6.2352   6.4112   6.6193   6.7753

          k =-0.1547-0.0846 0.2000 ( 44829 PWs)   bands (ev):

   -19.1906 -19.0688 -18.8719 -18.6946 -18.4892 -18.3294 -18.2025 -18.1662
   -18.1092 -18.0677 -18.0491 -17.9954 -17.8585 -17.4331 -16.6431  -7.2540
    -7.0016  -6.6483  -6.3174  -6.2389  -5.9919  -5.9582  -5.9182  -5.7149
    -5.6572  -5.6182  -5.5542  -5.4530  -5.4185  -5.3616  -5.2960  -5.2438
    -5.2022  -5.1612  -5.1398  -5.0789  -5.0396  -4.9734  -4.9077  -4.8507
    -4.8267  -4.6857  -4.6375  -4.5196  -4.4318  -4.2628  -4.2099  -4.0628
    -3.9747  -3.8821  -3.8386  -3.7307  -3.6312  -3.5057  -3.4268  -3.2144
    -3.1332  -3.0449  -2.9353  -2.8146  -2.7874  -2.6926  -2.6666  -2.5656
    -2.5274  -2.4677  -2.4363  -2.4061  -2.3588  -2.3439  -2.3080  -2.2917
    -2.2609  -2.2427  -2.2161  -2.2092  -2.1440  -2.1326  -2.1047  -2.0872
    -2.0639  -2.0403  -2.0340  -2.0249  -2.0217  -2.0101  -1.9873  -1.9756
    -1.9417  -1.9250  -1.8947  -1.8600  -1.8471  -1.8158  -1.7994  -1.7778
    -1.7430  -1.7307  -1.7250  -1.6951  -1.6755  -1.6367  -1.5903  -1.5619
    -1.5214  -1.4899  -1.4579  -1.4279  -1.4140  -1.3859  -1.3782  -1.3529
    -1.2916  -1.2362  -1.2002  -1.1756  -1.0827  -1.0675  -1.0186  -0.9298
    -0.9163  -0.8015  -0.7505  -0.6771  -0.5176  -0.2926  -0.1744  -0.0594
    -0.0194   0.0570   0.1321   0.2793   0.3575   0.4868   0.5707   0.7049
     0.7816   0.8641   0.9092   0.9939   1.1416   2.9638   3.1738   3.7043
     4.1620   4.5051   4.5446   4.6811   4.8296   5.0895   5.1956   5.4777
     5.5885   5.6674   5.7516   5.9218   6.0467   6.1252   6.3582   6.4582

          k =-0.1026-0.2537 0.2545 ( 44738 PWs)   bands (ev):

   -18.9761 -18.8826 -18.7424 -18.6383 -18.5687 -18.5074 -18.4598 -18.3570
   -18.2145 -18.1020 -18.0146 -17.9111 -17.8093 -17.4235 -16.6715  -6.6985
    -6.4802  -6.3624  -6.2391  -6.2047  -6.1431  -6.0808  -6.0432  -5.9300
    -5.8150  -5.7326  -5.6120  -5.5090  -5.4139  -5.3699  -5.2401  -5.1811
    -5.1273  -5.0942  -5.0595  -5.0456  -4.9904  -4.9539  -4.9256  -4.8795
    -4.7322  -4.6628  -4.6339  -4.4899  -4.4516  -4.3179  -4.2703  -4.1942
    -3.9833  -3.9552  -3.8924  -3.7484  -3.6981  -3.5803  -3.5430  -3.4659
    -3.3684  -3.0868  -2.9756  -2.8362  -2.8123  -2.7279  -2.6999  -2.6000
    -2.5232  -2.4765  -2.4440  -2.3888  -2.3551  -2.3222  -2.2590  -2.2502
    -2.2301  -2.2118  -2.1977  -2.1767  -2.1509  -2.1363  -2.1204  -2.1164
    -2.0633  -2.0526  -2.0442  -2.0203  -2.0027  -1.9928  -1.9806  -1.9518
    -1.9120  -1.9009  -1.8829  -1.8488  -1.8264  -1.8053  -1.7786  -1.7654
    -1.7364  -1.7081  -1.6833  -1.6613  -1.6211  -1.5909  -1.5661  -1.5300
    -1.5066  -1.4779  -1.4333  -1.4268  -1.3993  -1.3672  -1.3409  -1.3052
    -1.2796  -1.2627  -1.2252  -1.1842  -1.1375  -1.0752  -1.0386  -0.8915
    -0.8657  -0.8580  -0.8140  -0.7148  -0.5944  -0.4451  -0.3247  -0.2408
    -0.1839  -0.0908   0.0870   0.1181   0.2195   0.4941   0.6755   0.7588
     0.8016   0.9398   1.0901   1.1666   1.2670   2.4972   3.9723   4.0188
     4.1754   4.3332   4.5559   4.6955   4.8223   4.9636   5.1550   5.3642
     5.5412   5.6465   5.7421   5.9172   6.0729   6.3868   6.4437   6.8451

          k =-0.2589 0.2537 0.0909 ( 44738 PWs)   bands (ev):

   -18.9717 -18.8682 -18.7139 -18.6546 -18.5986 -18.5140 -18.4568 -18.3909
   -18.2246 -18.0895 -18.0082 -17.9063 -17.7972 -17.3805 -16.7038  -6.6963
    -6.4737  -6.3667  -6.2218  -6.1845  -6.1553  -6.0934  -6.0224  -5.9510
    -5.8849  -5.7672  -5.7269  -5.5374  -5.4178  -5.3431  -5.2537  -5.1725
    -5.1228  -5.0700  -5.0347  -5.0037  -4.9860  -4.9463  -4.9089  -4.8485
    -4.7687  -4.6968  -4.5893  -4.5068  -4.4373  -4.3299  -4.2294  -4.1421
    -4.0867  -3.9426  -3.7714  -3.6878  -3.6605  -3.6095  -3.5258  -3.4682
    -3.2808  -3.2229  -2.9808  -2.8269  -2.8206  -2.7342  -2.7079  -2.5942
    -2.5667  -2.4695  -2.4438  -2.3827  -2.3208  -2.2966  -2.2638  -2.2356
    -2.2200  -2.2133  -2.1989  -2.1651  -2.1513  -2.1376  -2.1222  -2.1032
    -2.0871  -2.0624  -2.0470  -2.0429  -2.0322  -1.9939  -1.9587  -1.9347
    -1.9046  -1.8845  -1.8613  -1.8430  -1.8135  -1.7989  -1.7849  -1.7670
    -1.7492  -1.7229  -1.7082  -1.6796  -1.6587  -1.6396  -1.5662  -1.5501
    -1.5108  -1.4948  -1.4716  -1.4270  -1.3878  -1.3651  -1.3586  -1.3088
    -1.2906  -1.2499  -1.2168  -1.1799  -1.1227  -1.0484  -1.0113  -0.9791
    -0.9503  -0.8383  -0.7871  -0.7582  -0.5852  -0.4707  -0.2677  -0.1265
    -0.0296   0.0355   0.1189   0.2047   0.3037   0.4144   0.5616   0.7344
     0.7756   0.9141   1.0497   1.1579   1.2732   2.6294   3.6972   4.0094
     4.1138   4.2958   4.5192   4.6917   4.8593   5.0619   5.1285   5.3827
     5.5590   5.6287   5.7555   5.9858   6.0719   6.3459   6.4804   6.8369

          k =-0.2068 0.0846 0.1454 ( 44829 PWs)   bands (ev):

   -19.1888 -19.0635 -18.8653 -18.6981 -18.4922 -18.3202 -18.2640 -18.1998
   -18.1201 -18.0385 -18.0258 -17.9833 -17.8435 -17.3927 -16.6735  -7.2517
    -6.9952  -6.6466  -6.3325  -6.2406  -6.0130  -5.9739  -5.9256  -5.7851
    -5.6909  -5.5914  -5.5687  -5.4927  -5.4517  -5.3649  -5.2659  -5.2161
    -5.1910  -5.1404  -5.1337  -5.0744  -5.0435  -4.9471  -4.9332  -4.8702
    -4.7816  -4.7248  -4.6226  -4.4981  -4.4134  -4.2620  -4.1624  -4.1137
    -3.9831  -3.8451  -3.7753  -3.6381  -3.5797  -3.5381  -3.3639  -3.2574
    -3.1902  -3.0696  -2.9158  -2.8392  -2.7971  -2.7106  -2.6527  -2.6152
    -2.5350  -2.4595  -2.4333  -2.3863  -2.3653  -2.3302  -2.2991  -2.2848
    -2.2608  -2.2345  -2.2019  -2.1870  -2.1569  -2.1280  -2.1122  -2.0905
    -2.0664  -2.0406  -2.0287  -2.0248  -2.0087  -1.9989  -1.9795  -1.9587
    -1.9402  -1.9350  -1.8962  -1.8747  -1.8581  -1.8258  -1.8069  -1.7820
    -1.7673  -1.7524  -1.7231  -1.6868  -1.6523  -1.6251  -1.5814  -1.5659
    -1.5352  -1.5116  -1.4744  -1.4478  -1.4223  -1.3883  -1.3703  -1.3349
    -1.2992  -1.2765  -1.2282  -1.1885  -1.1134  -1.0864  -1.0556  -0.9683
    -0.9266  -0.8259  -0.7148  -0.6679  -0.3546  -0.2714  -0.1161  -0.0415
     0.0397   0.1515   0.2401   0.3268   0.3655   0.4351   0.5513   0.6503
     0.7593   0.8444   0.8824   0.9801   1.0936   3.0188   3.2445   3.7246
     4.1389   4.3733   4.5049   4.6591   4.7137   4.8893   5.2733   5.5036
     5.5790   5.6756   5.7157   5.8160   6.0277   6.1543   6.3466   6.5289

          k = 0.3094 0.1691-0.4000 ( 44682 PWs)   bands (ev):

   -18.8478 -18.8367 -18.7707 -18.7000 -18.6461 -18.5766 -18.2379 -18.1988
   -18.1512 -18.0943 -18.0527 -17.9743 -17.8569 -17.4631 -16.6477  -6.6284
    -6.6171  -6.5398  -6.4569  -6.3385  -6.2515  -6.2219  -6.1855  -6.0828
    -5.9595  -5.7807  -5.6520  -5.5644  -5.5357  -5.4300  -5.3637  -5.3023
    -5.2469  -5.1738  -5.1660  -5.0892  -5.0019  -4.9744  -4.9397  -4.8982
    -4.7946  -4.7292  -4.6874  -4.5460  -4.3891  -4.3310  -4.2368  -4.0674
    -4.0206  -3.9810  -3.7817  -3.7468  -3.6804  -3.5857  -3.4487  -3.3522
    -3.1676  -3.0679  -2.7505  -2.7032  -2.6569  -2.6300  -2.5936  -2.5515
    -2.4585  -2.4260  -2.3948  -2.3271  -2.3205  -2.2924  -2.2738  -2.2586
    -2.2439  -2.2354  -2.2304  -2.2129  -2.1839  -2.1757  -2.1683  -2.1402
    -2.1178  -2.0855  -2.0764  -2.0518  -2.0394  -2.0359  -2.0115  -1.9660
    -1.9454  -1.9292  -1.8924  -1.8783  -1.8373  -1.8053  -1.7665  -1.7556
    -1.7258  -1.6778  -1.6586  -1.6161  -1.6053  -1.5981  -1.5670  -1.5487
    -1.5209  -1.4888  -1.4770  -1.4352  -1.4003  -1.3897  -1.3503  -1.3212
    -1.2936  -1.2650  -1.2153  -1.1959  -1.0953  -1.0653  -1.0537  -1.0438
    -0.8986  -0.8488  -0.7233  -0.6616  -0.5736  -0.3086  -0.1890  -0.0771
     0.0632   0.0664   0.1427   0.2246   0.3449   0.5039   0.6711   0.7027
     0.8311   0.8662   0.9410   1.1748   1.2453   2.7203   4.2788   4.4579
     4.7211   4.7333   4.7831   4.8665   4.9746   5.0586   5.5652   5.6711
     5.7189   5.7664   5.9284   6.1153   6.2615   6.5570   6.8393   7.2157

          k = 0.3615 0.0000-0.3454 ( 44687 PWs)   bands (ev):

   -18.8636 -18.8328 -18.7542 -18.6882 -18.6400 -18.5195 -18.3880 -18.2554
   -18.1315 -18.0536 -18.0200 -17.9670 -17.8421 -17.4198 -16.6790  -6.6641
    -6.5751  -6.4889  -6.4613  -6.4018  -6.3043  -6.1757  -6.1404  -6.1077
    -6.0084  -5.8300  -5.7618  -5.7042  -5.5092  -5.3602  -5.2650  -5.2415
    -5.2130  -5.1895  -5.1391  -5.0715  -4.9991  -4.9727  -4.9306  -4.8988
    -4.8019  -4.7294  -4.6315  -4.5605  -4.4451  -4.3304  -4.1867  -4.0734
    -4.0396  -3.9301  -3.8475  -3.7733  -3.6871  -3.5101  -3.3991  -3.2981
    -3.1747  -3.0850  -2.9164  -2.7176  -2.7015  -2.6443  -2.5959  -2.5604
    -2.4761  -2.4350  -2.3703  -2.3387  -2.3000  -2.2772  -2.2650  -2.2490
    -2.2293  -2.2279  -2.2138  -2.2010  -2.1855  -2.1662  -2.1623  -2.1426
    -2.1098  -2.0929  -2.0603  -2.0377  -2.0255  -2.0114  -1.9860  -1.9639
    -1.9221  -1.9053  -1.8939  -1.8731  -1.8445  -1.7964  -1.7748  -1.7191
    -1.6930  -1.6695  -1.6525  -1.6391  -1.6100  -1.5724  -1.5652  -1.5467
    -1.5236  -1.4945  -1.4690  -1.4545  -1.4204  -1.3833  -1.3736  -1.3411
    -1.3161  -1.2997  -1.2600  -1.2481  -1.2095  -1.0966  -1.0841  -1.0118
    -0.9522  -0.8540  -0.6592  -0.6222  -0.4153  -0.2288  -0.1610  -0.0541
    -0.0073   0.1138   0.1834   0.2878   0.3738   0.4540   0.5943   0.7577
     0.8761   0.9067   0.9738   1.1672   1.1872   2.6861   4.1248   4.4518
     4.4643   4.5965   4.6671   4.8942   5.0503   5.2600   5.4698   5.6709
     5.7443   5.8469   5.9728   6.0811   6.3068   6.6480   6.8640   7.2967

          k = 0.2051 0.5073-0.5091 ( 44682 PWs)   bands (ev):

   -18.8385 -18.8300 -18.7592 -18.6800 -18.6327 -18.5084 -18.4973 -18.2309
   -18.1426 -18.0390 -18.0180 -17.9570 -17.8331 -17.3742 -16.7141  -6.6314
    -6.6076  -6.5286  -6.4306  -6.3255  -6.2838  -6.2270  -6.1380  -6.0759
    -6.0026  -5.9756  -5.8128  -5.6696  -5.4933  -5.4159  -5.3591  -5.2723
    -5.1896  -5.1735  -5.1112  -5.0906  -5.0158  -5.0001  -4.8971  -4.8700
    -4.8380  -4.7906  -4.7036  -4.4527  -4.3582  -4.1876  -4.1792  -4.0215
    -4.0079  -3.8462  -3.7808  -3.7262  -3.6341  -3.5359  -3.5246  -3.4460
    -3.2647  -3.0005  -2.7812  -2.7382  -2.6806  -2.6646  -2.5998  -2.5520
    -2.4925  -2.4009  -2.3693  -2.3318  -2.3117  -2.2739  -2.2677  -2.2565
    -2.2467  -2.2316  -2.2116  -2.2020  -2.1898  -2.1800  -2.1569  -2.1390
    -2.1141  -2.0882  -2.0721  -2.0650  -2.0431  -2.0373  -2.0153  -1.9871
    -1.9392  -1.9145  -1.8928  -1.8665  -1.8466  -1.8239  -1.7873  -1.7562
    -1.7310  -1.7232  -1.6810  -1.6481  -1.6206  -1.5926  -1.5772  -1.5428
    -1.5203  -1.4956  -1.4749  -1.4407  -1.4059  -1.3927  -1.3647  -1.3401
    -1.3284  -1.3028  -1.2382  -1.2279  -1.1934  -1.1016  -1.0756  -1.0198
    -0.9500  -0.8530  -0.6565  -0.6138  -0.3272  -0.1626  -0.0930   0.0058
     0.0957   0.1771   0.3046   0.3273   0.4716   0.5093   0.6308   0.7080
     0.7364   0.8861   0.9364   1.0844   1.1813   2.5928   3.8806   4.2988
     4.4559   4.7174   4.7805   4.8834   5.0005   5.2036   5.3115   5.6799
     5.7303   5.8346   5.9354   6.0860   6.4259   6.7344   6.9231   7.1063

     the Fermi energy is     0.3965 ev

!    total energy              =   -4033.33773247 Ry
     total all-electron energy =    -55216.117376 Ry
     estimated scf accuracy    <          3.7E-09 Ry
     smearing contrib. (-TS)   =       0.00106693 Ry
     internal energy E=F+TS    =   -4033.33879940 Ry

     The total energy is F=E-TS. E is the sum of the following terms:
     one-electron contribution =  -47344.29231256 Ry
     hartree contribution      =   23900.12271775 Ry
     xc contribution           =    -823.59162777 Ry
     ewald contribution        =   21814.85750069 Ry
     one-center paw contrib.   =   -1580.43507751 Ry

     convergence has been achieved in  21 iterations

     negative rho (up, down):  9.122E-04 0.000E+00

     Forces acting on atoms (cartesian axes, Ry/au):

     atom    1 type  1   force =    -0.00000909    0.00010991   -0.00000403
     atom    2 type  1   force =    -0.00008094    0.00024994    0.00004651
     atom    3 type  1   force =     0.00004811   -0.00004767   -0.00010759
     atom    4 type  1   force =     0.00004607    0.00010624    0.00001897
     atom    5 type  1   force =    -0.00015180    0.00003135   -0.00000790
     atom    6 type  1   force =    -0.00006998   -0.00010648   -0.00013977
     atom    7 type  1   force =    -0.00041020    0.00013345    0.00006286
     atom    8 type  1   force =    -0.00045404   -0.00018623    0.00013049
     atom    9 type  1   force =     0.00028016   -0.00032760   -0.00010636
     atom   10 type  1   force =     0.00008444   -0.00010606    0.00009302
     atom   11 type  1   force =     0.00059803    0.00029153   -0.00024098
     atom   12 type  1   force =    -0.00012176   -0.00051514    0.00018559
     atom   13 type  1   force =     0.00007527    0.00085797   -0.00003792
     atom   14 type  1   force =     0.00035811   -0.00071620    0.00054341
     atom   15 type  1   force =    -0.00073160    0.00018304    0.00010135
     atom   16 type  1   force =    -0.00036426    0.00087982    0.00019417
     atom   17 type  2   force =    -0.00006445    0.00012170    0.00007570
     atom   18 type  2   force =    -0.00007214    0.00023113   -0.00002977
     atom   19 type  2   force =    -0.00004085   -0.00000830   -0.00002443
     atom   20 type  2   force =     0.00011668    0.00004691   -0.00019912
     atom   21 type  2   force =    -0.00009922   -0.00012545   -0.00018511
     atom   22 type  2   force =     0.00000974   -0.00009109   -0.00020535
     atom   23 type  2   force =    -0.00013511    0.00014962   -0.00026938
     atom   24 type  2   force =    -0.00048851   -0.00002683    0.00001109
     atom   25 type  2   force =     0.00032570    0.00005100   -0.00009501
     atom   26 type  2   force =    -0.00028077   -0.00045205   -0.00040498
     atom   27 type  2   force =     0.00045015    0.00039440   -0.00005363
     atom   28 type  2   force =     0.00017377   -0.00031988    0.00046335
     atom   29 type  2   force =    -0.00004259    0.00031440    0.00001353
     atom   30 type  2   force =     0.00073120   -0.00057129   -0.00025758
     atom   31 type  2   force =     0.00031990   -0.00055212    0.00042887

     Total force =     0.002892     Total SCF correction =     0.000157
     Energy error            =      1.6E-05 Ry
     Gradient error          =      8.8E-04 Ry/Bohr

     bfgs converged in  30 scf cycles and  29 bfgs steps
     (criteria: energy <  1.0E-04 Ry, force <  1.0E-03 Ry/Bohr)

     End of BFGS Geometry Optimization

     Final energy             =   -4033.3377324690 Ry

     File ./tmp/CuO_111_slab_Ovac.bfgs deleted, as requested
Begin final coordinates

ATOMIC_POSITIONS (angstrom)
Cu               7.4377024558        2.6328102954       10.0749252227
Cu               8.8447480615        0.1434611267        8.8426914501
Cu              10.3861155758        2.6208234735       10.2401519677
Cu               6.0009630321        5.1811399170       11.5756703814
Cu              10.3581541688        2.5705137571       13.1695402087
Cu               8.9637687573        5.1591983889       11.7056248008
Cu              13.2973431108        2.5599274527       13.3076484991
Cu              11.9074028898        5.1491995612       11.8503090713
Cu              10.5129119186        7.6993432507       16.2946490478
Cu              11.9034522865        5.1309483389       14.7894612504
Cu              13.3991669319        7.6403715843       16.4324976180
Cu              14.8444146159        5.0835121982       14.9172286314
Cu              16.4390921156        7.7226623181       16.6165081993
Cu              14.8775780617        5.1419917319       17.9295806282
Cu              15.9594905968        8.0133741418       19.0076795554
Cu              14.9632547819       10.0443735367       18.0680776561
O                7.4135200468        4.0134454081        8.7935863079
O                7.4640083995        1.2578047204        8.8703709756
O                7.4512435783        3.8964737572       11.5805435293
O               10.3929121350        1.4194436159        8.7489909835
O               10.4222375638        3.8735336367       11.7262179784
O               10.2921377321        1.2942841205       11.6743776554
O               10.4283166077        3.8547013629       14.6592759383
O               10.4486449078        6.4386411125       11.8507288757
O               13.3564702014        3.8330258398       14.8054833138
O               10.4500898435        6.4295707846       14.7996050357
O               16.2768404393        3.7898251038       14.9695740424
O               13.4005160932        6.3859946900       14.9162096163
O               13.3946749573        8.8999836776       17.9324497442
O               13.3720971287        6.3246259501       17.8262121265
O               16.4860836681        6.4710727009       18.0573163455
End final coordinates



     Writing all to output data dir ./tmp/CuO_111_slab_Ovac.save/ :
     XML data file, charge density, pseudopotentials, collected wavefunctions
 
     init_run     :     91.51s CPU     93.57s WALL (       1 calls)
     electrons    : 162345.53s CPU 165844.44s WALL (      30 calls)
     update_pot   :    104.52s CPU    107.94s WALL (      29 calls)
     forces       :   1179.95s CPU   1225.00s WALL (      30 calls)

     Called by init_run:
     wfcinit      :     78.47s CPU     79.50s WALL (       1 calls)
     potinit      :      3.26s CPU      3.42s WALL (       1 calls)
     hinit0       :      0.64s CPU      0.70s WALL (       1 calls)

     Called by electrons:
     c_bands      : 118307.58s CPU 120245.18s WALL (     757 calls)
     sum_band     :  34332.06s CPU  35200.13s WALL (     757 calls)
     v_of_rho     :    812.34s CPU    866.02s WALL (     772 calls)
     newd         :   7367.92s CPU   8010.12s WALL (     772 calls)
     PAW_pot      :   1681.81s CPU   1690.27s WALL (     801 calls)
     mix_rho      :    198.38s CPU    208.48s WALL (     757 calls)

     Called by c_bands:
     init_us_2    :   2967.89s CPU   3001.44s WALL (   15740 calls)
     cegterg      : 110703.84s CPU 112553.52s WALL (    7570 calls)

     Called by *egterg:
     cdiaghg      :    504.84s CPU    507.61s WALL (   19884 calls)
     h_psi        :  87767.56s CPU  88772.77s WALL (   20334 calls)
     s_psi        :   6356.64s CPU   6395.60s WALL (   20334 calls)
     g_psi        :    280.17s CPU    281.59s WALL (   12754 calls)

     Called by h_psi:
     h_psi:calbec :   6188.74s CPU   6309.94s WALL (   20334 calls)
     vloc_psi     :  74749.56s CPU  75250.17s WALL (   20334 calls)
     add_vuspsi   :   6363.50s CPU   6426.50s WALL (   20334 calls)

     General routines
     calbec       :   9568.29s CPU   9736.04s WALL (   29394 calls)
     fft          :    308.24s CPU    310.14s WALL (   10350 calls)
     ffts         :     15.21s CPU     15.30s WALL (    1529 calls)
     fftw         :  60053.71s CPU  60416.43s WALL ( 6320530 calls)
     interpolate  :     50.41s CPU     51.40s WALL (     772 calls)
 
     Parallel routines
 
     PWSCF        :   1d21h37m CPU   1d22h36m WALL

 
   This run was terminated on:  10:30:14  27Nov2025            

=------------------------------------------------------------------------------=
   JOB DONE.
=------------------------------------------------------------------------------=
