MPI startup(): PMI server not found. Please set I_MPI_PMI_LIBRARY variable if it is not a singleton case.

     Program PWSCF v.7.3.1 starts on  9Jan2026 at 11:36:15 

     This program is part of the open-source Quantum ESPRESSO suite
     for quantum simulation of materials; please cite
         "P. Giannozzi et al., J. Phys.:Condens. Matter 21 395502 (2009);
         "P. Giannozzi et al., J. Phys.:Condens. Matter 29 465901 (2017);
         "P. Giannozzi et al., J. Chem. Phys. 152 154105 (2020);
          URL http://www.quantum-espresso.org", 
     in publications or presentations arising from this work. More details at
     http://www.quantum-espresso.org/quote

     Parallel version (MPI), running on     1 processors

     MPI processes distributed on     1 nodes
     159655 MiB available memory on the printing compute node when the environment starts
 
     Reading input from CuO_slabovac_scf.in

     Current dimensions of program PWSCF are:
     Max number of different atomic species (ntypx) = 10
     Max number of k-points (npk) =  40000
     Max angular momentum in pseudopotentials (lmaxx) =  4
     file Cu.pbe-dn-kjpaw_psl.1.0.0.UPF: wavefunction(s)  4S 3D renormalized
     file O.pbe-n-kjpaw_psl.0.1.UPF: wavefunction(s)  2P renormalized
 
     Subspace diagonalization in iterative solution of the eigenvalue problem:
     a serial algorithm will be used

 
     G-vector sticks info
     --------------------
     sticks:   dense  smooth     PW     G-vecs:    dense   smooth      PW
     Sum        4573    2281    645              1860957   657963   99181
 
     Using Slab Decomposition
 


     bravais-lattice index     =            0
     lattice parameter (alat)  =       7.6739  a.u.
     unit-cell volume          =    5703.8646 (a.u.)^3
     number of atoms/cell      =           31
     number of atomic types    =            2
     number of electrons       =       266.00
     number of Kohn-Sham states=          160
     kinetic-energy cutoff     =      90.0000  Ry
     charge density cutoff     =     720.0000  Ry
     scf convergence threshold =      1.0E-08
     mixing beta               =       0.3000
     number of iterations used =            8  plain     mixing
     Exchange-correlation= SLA  PW   PBX  PBC
                           (   1   4   3   4   0   0   0)
     Hubbard projectors: ortho-atomic
     Hubbard parameters of DFT+U (Dudarev formulation) in eV:
     U(Cu-3d) =  5.0000

     Internal variables: lda_plus_u = T, lda_plus_u_kind = 0

     celldm(1)=   7.673918  celldm(2)=   0.000000  celldm(3)=   0.000000
     celldm(4)=   0.000000  celldm(5)=   0.000000  celldm(6)=   0.000000

     crystal axes: (cart. coord. in units of alat)
               a(1) = (  -0.722969   0.000000   0.690881 )  
               a(2) = (   0.684632  -1.269632  -0.007284 )  
               a(3) = (   5.898761   3.808895   6.172731 )  

     reciprocal axes: (cart. coord. in units 2 pi/alat)
               b(1) = ( -0.618724 -0.338228  0.799967 )  
               b(2) = (  0.208489 -0.676457  0.218173 )  
               b(3) = (  0.069496  0.037058  0.072724 )  


     PseudoPot. # 1 for Cu read from file:
     ../SSSP/Cu.pbe-dn-kjpaw_psl.1.0.0.UPF
     MD5 check sum: cfffd1f38ee05704b3e17f46f1730a6f
     Pseudo is Projector augmented-wave + core cor, Zval = 11.0
     Generated using &quot;atomic&quot; code by A. Dal Corso  v.6.3
     Shape of augmentation charge: PSQ
     Using radial grid of 1199 points,  6 beta functions with: 
                l(1) =   0
                l(2) =   0
                l(3) =   1
                l(4) =   1
                l(5) =   2
                l(6) =   2
     Q(r) pseudized with 0 coefficients 


     PseudoPot. # 2 for O  read from file:
     ../SSSP/O.pbe-n-kjpaw_psl.0.1.UPF
     MD5 check sum: 0234752ac141de4415c5fc33072bef88
     Pseudo is Projector augmented-wave + core cor, Zval =  6.0
     Generated using "atomic" code by A. Dal Corso  v.5.0.99 svn rev. 10869
     Shape of augmentation charge: BESSEL
     Using radial grid of 1095 points,  4 beta functions with: 
                l(1) =   0
                l(2) =   0
                l(3) =   1
                l(4) =   1
     Q(r) pseudized with 0 coefficients 


     atomic species   valence    mass     pseudopotential
     Cu               11.00    63.54600     Cu( 1.00)
     O                 6.00    15.99900     O ( 1.00)

     Starting magnetic structure 
     atomic species   magnetization
     Cu              0.500
     O               0.000

     No symmetry found



   Cartesian axes

     site n.     atom                  positions (alat units)
         1        Cu     tau(   1) = (   1.8315574   0.6483377   2.4809818  )
         2        Cu     tau(   2) = (   2.1780468   0.0353277   2.1775403  )
         3        Cu     tau(   3) = (   2.5576134   0.6453860   2.5216694  )
         4        Cu     tau(   4) = (   1.4777559   1.2758719   2.8505449  )
         5        Cu     tau(   5) = (   2.5507278   0.6329970   3.2430404  )
         6        Cu     tau(   6) = (   2.2073560   1.2704687   2.8825466  )
         7        Cu     tau(   7) = (   3.2745122   0.6303901   3.2770499  )
         8        Cu     tau(   8) = (   2.9322351   1.2680065   2.9181756  )
         9        Cu     tau(   9) = (   2.5888373   1.8959873   4.0126081  )
        10        Cu     tau(  10) = (   2.9312623   1.2635120   3.6419510  )
        11        Cu     tau(  11) = (   3.2995866   1.8814653   4.0465538  )
        12        Cu     tau(  12) = (   3.6554834   1.2518307   3.6734141  )
        13        Cu     tau(  13) = (   4.0481777   1.9017297   4.0918670  )
        14        Cu     tau(  14) = (   3.6636500   1.2662315   4.4152152  )
        15        Cu     tau(  15) = (   3.9300743   1.9733184   4.6807004  )
        16        Cu     tau(  16) = (   3.6847482   2.4734583   4.4493205  )
        17        O      tau(  17) = (   1.8256024   0.9883234   2.1654481  )
        18        O      tau(  18) = (   1.8380353   0.3097383   2.1843565  )
        19        O      tau(  19) = (   1.8348920   0.9595188   2.8517450  )
        20        O      tau(  20) = (   2.5592870   0.3495424   2.1544663  )
        21        O      tau(  21) = (   2.5665085   0.9538697   2.8876178  )
        22        O      tau(  22) = (   2.5344710   0.3187215   2.8748519  )
        23        O      tau(  23) = (   2.5680055   0.9492322   3.6098924  )
        24        O      tau(  24) = (   2.5730114   1.5855355   2.9182789  )
        25        O      tau(  25) = (   3.2890724   0.9438946   3.6458964  )
        26        O      tau(  26) = (   2.5733672   1.5833019   3.6444489  )
        27        O      tau(  27) = (   4.0082227   0.9332563   3.6863043  )
        28        O      tau(  28) = (   3.2999189   1.5725711   3.6731631  )
        29        O      tau(  29) = (   3.2984805   2.1916487   4.4159217  )
        30        O      tau(  30) = (   3.2929206   1.5574589   4.3897603  )
        31        O      tau(  31) = (   4.0597495   1.5935218   4.4466705  )

     number of k points=    20  Methfessel-Paxton smearing, width (Ry)=  0.0200
                       cart. coord. in units 2pi/alat
        k(    1) = (   0.0000000   0.0000000   0.0000000), wk =   0.0277778
        k(    2) = (   0.0347482  -0.1127428   0.0363621), wk =   0.0555556
        k(    3) = (   0.0694965  -0.2254856   0.0727243), wk =   0.0555556
        k(    4) = (  -0.1042447   0.3382283  -0.1090864), wk =   0.0277778
        k(    5) = (  -0.1031207  -0.0563714   0.1333278), wk =   0.0555556
        k(    6) = (  -0.0683724  -0.1691142   0.1696900), wk =   0.0555556
        k(    7) = (  -0.0336242  -0.2818569   0.2060521), wk =   0.0555556
        k(    8) = (  -0.2073654   0.2818569   0.0242414), wk =   0.0555556
        k(    9) = (  -0.1726172   0.1691142   0.0606036), wk =   0.0555556
        k(   10) = (  -0.1378689   0.0563714   0.0969657), wk =   0.0555556
        k(   11) = (  -0.2062414  -0.1127428   0.2666557), wk =   0.0555556
        k(   12) = (  -0.1714931  -0.2254856   0.3030178), wk =   0.0555556
        k(   13) = (  -0.1367449  -0.3382283   0.3393800), wk =   0.0555556
        k(   14) = (  -0.3104861   0.2254855   0.1575693), wk =   0.0555556
        k(   15) = (  -0.2757379   0.1127428   0.1939314), wk =   0.0555556
        k(   16) = (  -0.2409896  -0.0000000   0.2302936), wk =   0.0555556
        k(   17) = (   0.3093620   0.1691142  -0.3999835), wk =   0.0277778
        k(   18) = (   0.3441103   0.0563714  -0.3636214), wk =   0.0555556
        k(   19) = (   0.3788585  -0.0563714  -0.3272593), wk =   0.0555556
        k(   20) = (   0.2051173   0.5073425  -0.5090700), wk =   0.0277778

     Dense  grid:  1860957 G-vectors     FFT dimensions: (  72,  96, 625)

     Smooth grid:   657963 G-vectors     FFT dimensions: (  48,  72, 450)

     Estimated max dynamical RAM per process >      20.00 GB
     Generating pointlists ...
     new r_m :   0.1803 (alat units)  1.3833 (a.u.) for type    1
     new r_m :   0.1803 (alat units)  1.3833 (a.u.) for type    2

     Initial potential from superposition of free atoms

     starting charge     265.9963, renormalised to     266.0000

     negative rho (up, down):  2.653E-04 2.124E-04

     STARTING HUBBARD OCCUPATIONS:

     =================== HUBBARD OCCUPATIONS ===================
     ------------------------ ATOM    1 ------------------------
     Tr[ns(  1)] (up, down, total) =   5.00000  4.50000  9.50000
     Atomic magnetic moment for atom   1 =   0.50000
     SPIN  1
     eigenvalues:
       1.000  1.000  1.000  1.000  1.000
     eigenvectors (columns):
       1.000  0.000  0.000  0.000  0.000
       0.000  1.000  0.000  0.000  0.000
       0.000  0.000  1.000  0.000  0.000
       0.000  0.000  0.000  1.000  0.000
       0.000  0.000  0.000  0.000  1.000
     occupation matrix ns (before diag.):
       1.000  0.000  0.000  0.000  0.000
       0.000  1.000  0.000  0.000  0.000
       0.000  0.000  1.000  0.000  0.000
       0.000  0.000  0.000  1.000  0.000
       0.000  0.000  0.000  0.000  1.000
     SPIN  2
     eigenvalues:
       0.900  0.900  0.900  0.900  0.900
     eigenvectors (columns):
       1.000  0.000  0.000  0.000  0.000
       0.000  1.000  0.000  0.000  0.000
       0.000  0.000  1.000  0.000  0.000
       0.000  0.000  0.000  1.000  0.000
       0.000  0.000  0.000  0.000  1.000
     occupation matrix ns (before diag.):
       0.900  0.000  0.000  0.000  0.000
       0.000  0.900  0.000  0.000  0.000
       0.000  0.000  0.900  0.000  0.000
       0.000  0.000  0.000  0.900  0.000
       0.000  0.000  0.000  0.000  0.900
     ------------------------ ATOM    2 ------------------------
     Tr[ns(  2)] (up, down, total) =   5.00000  4.50000  9.50000
     Atomic magnetic moment for atom   2 =   0.50000
     SPIN  1
     eigenvalues:
       1.000  1.000  1.000  1.000  1.000
     eigenvectors (columns):
       1.000  0.000  0.000  0.000  0.000
       0.000  1.000  0.000  0.000  0.000
       0.000  0.000  1.000  0.000  0.000
       0.000  0.000  0.000  1.000  0.000
       0.000  0.000  0.000  0.000  1.000
     occupation matrix ns (before diag.):
       1.000  0.000  0.000  0.000  0.000
       0.000  1.000  0.000  0.000  0.000
       0.000  0.000  1.000  0.000  0.000
       0.000  0.000  0.000  1.000  0.000
       0.000  0.000  0.000  0.000  1.000
     SPIN  2
     eigenvalues:
       0.900  0.900  0.900  0.900  0.900
     eigenvectors (columns):
       1.000  0.000  0.000  0.000  0.000
       0.000  1.000  0.000  0.000  0.000
       0.000  0.000  1.000  0.000  0.000
       0.000  0.000  0.000  1.000  0.000
       0.000  0.000  0.000  0.000  1.000
     occupation matrix ns (before diag.):
       0.900  0.000  0.000  0.000  0.000
       0.000  0.900  0.000  0.000  0.000
       0.000  0.000  0.900  0.000  0.000
       0.000  0.000  0.000  0.900  0.000
       0.000  0.000  0.000  0.000  0.900
     ------------------------ ATOM    3 ------------------------
     Tr[ns(  3)] (up, down, total) =   5.00000  4.50000  9.50000
     Atomic magnetic moment for atom   3 =   0.50000
     SPIN  1
     eigenvalues:
       1.000  1.000  1.000  1.000  1.000
     eigenvectors (columns):
       1.000  0.000  0.000  0.000  0.000
       0.000  1.000  0.000  0.000  0.000
       0.000  0.000  1.000  0.000  0.000
       0.000  0.000  0.000  1.000  0.000
       0.000  0.000  0.000  0.000  1.000
     occupation matrix ns (before diag.):
       1.000  0.000  0.000  0.000  0.000
       0.000  1.000  0.000  0.000  0.000
       0.000  0.000  1.000  0.000  0.000
       0.000  0.000  0.000  1.000  0.000
       0.000  0.000  0.000  0.000  1.000
     SPIN  2
     eigenvalues:
       0.900  0.900  0.900  0.900  0.900
     eigenvectors (columns):
       1.000  0.000  0.000  0.000  0.000
       0.000  1.000  0.000  0.000  0.000
       0.000  0.000  1.000  0.000  0.000
       0.000  0.000  0.000  1.000  0.000
       0.000  0.000  0.000  0.000  1.000
     occupation matrix ns (before diag.):
       0.900  0.000  0.000  0.000  0.000
       0.000  0.900  0.000  0.000  0.000
       0.000  0.000  0.900  0.000  0.000
       0.000  0.000  0.000  0.900  0.000
       0.000  0.000  0.000  0.000  0.900
     ------------------------ ATOM    4 ------------------------
     Tr[ns(  4)] (up, down, total) =   5.00000  4.50000  9.50000
     Atomic magnetic moment for atom   4 =   0.50000
     SPIN  1
     eigenvalues:
       1.000  1.000  1.000  1.000  1.000
     eigenvectors (columns):
       1.000  0.000  0.000  0.000  0.000
       0.000  1.000  0.000  0.000  0.000
       0.000  0.000  1.000  0.000  0.000
       0.000  0.000  0.000  1.000  0.000
       0.000  0.000  0.000  0.000  1.000
     occupation matrix ns (before diag.):
       1.000  0.000  0.000  0.000  0.000
       0.000  1.000  0.000  0.000  0.000
       0.000  0.000  1.000  0.000  0.000
       0.000  0.000  0.000  1.000  0.000
       0.000  0.000  0.000  0.000  1.000
     SPIN  2
     eigenvalues:
       0.900  0.900  0.900  0.900  0.900
     eigenvectors (columns):
       1.000  0.000  0.000  0.000  0.000
       0.000  1.000  0.000  0.000  0.000
       0.000  0.000  1.000  0.000  0.000
       0.000  0.000  0.000  1.000  0.000
       0.000  0.000  0.000  0.000  1.000
     occupation matrix ns (before diag.):
       0.900  0.000  0.000  0.000  0.000
       0.000  0.900  0.000  0.000  0.000
       0.000  0.000  0.900  0.000  0.000
       0.000  0.000  0.000  0.900  0.000
       0.000  0.000  0.000  0.000  0.900
     ------------------------ ATOM    5 ------------------------
     Tr[ns(  5)] (up, down, total) =   5.00000  4.50000  9.50000
     Atomic magnetic moment for atom   5 =   0.50000
     SPIN  1
     eigenvalues:
       1.000  1.000  1.000  1.000  1.000
     eigenvectors (columns):
       1.000  0.000  0.000  0.000  0.000
       0.000  1.000  0.000  0.000  0.000
       0.000  0.000  1.000  0.000  0.000
       0.000  0.000  0.000  1.000  0.000
       0.000  0.000  0.000  0.000  1.000
     occupation matrix ns (before diag.):
       1.000  0.000  0.000  0.000  0.000
       0.000  1.000  0.000  0.000  0.000
       0.000  0.000  1.000  0.000  0.000
       0.000  0.000  0.000  1.000  0.000
       0.000  0.000  0.000  0.000  1.000
     SPIN  2
     eigenvalues:
       0.900  0.900  0.900  0.900  0.900
     eigenvectors (columns):
       1.000  0.000  0.000  0.000  0.000
       0.000  1.000  0.000  0.000  0.000
       0.000  0.000  1.000  0.000  0.000
       0.000  0.000  0.000  1.000  0.000
       0.000  0.000  0.000  0.000  1.000
     occupation matrix ns (before diag.):
       0.900  0.000  0.000  0.000  0.000
       0.000  0.900  0.000  0.000  0.000
       0.000  0.000  0.900  0.000  0.000
       0.000  0.000  0.000  0.900  0.000
       0.000  0.000  0.000  0.000  0.900
     ------------------------ ATOM    6 ------------------------
     Tr[ns(  6)] (up, down, total) =   5.00000  4.50000  9.50000
     Atomic magnetic moment for atom   6 =   0.50000
     SPIN  1
     eigenvalues:
       1.000  1.000  1.000  1.000  1.000
     eigenvectors (columns):
       1.000  0.000  0.000  0.000  0.000
       0.000  1.000  0.000  0.000  0.000
       0.000  0.000  1.000  0.000  0.000
       0.000  0.000  0.000  1.000  0.000
       0.000  0.000  0.000  0.000  1.000
     occupation matrix ns (before diag.):
       1.000  0.000  0.000  0.000  0.000
       0.000  1.000  0.000  0.000  0.000
       0.000  0.000  1.000  0.000  0.000
       0.000  0.000  0.000  1.000  0.000
       0.000  0.000  0.000  0.000  1.000
     SPIN  2
     eigenvalues:
       0.900  0.900  0.900  0.900  0.900
     eigenvectors (columns):
       1.000  0.000  0.000  0.000  0.000
       0.000  1.000  0.000  0.000  0.000
       0.000  0.000  1.000  0.000  0.000
       0.000  0.000  0.000  1.000  0.000
       0.000  0.000  0.000  0.000  1.000
     occupation matrix ns (before diag.):
       0.900  0.000  0.000  0.000  0.000
       0.000  0.900  0.000  0.000  0.000
       0.000  0.000  0.900  0.000  0.000
       0.000  0.000  0.000  0.900  0.000
       0.000  0.000  0.000  0.000  0.900
     ------------------------ ATOM    7 ------------------------
     Tr[ns(  7)] (up, down, total) =   5.00000  4.50000  9.50000
     Atomic magnetic moment for atom   7 =   0.50000
     SPIN  1
     eigenvalues:
       1.000  1.000  1.000  1.000  1.000
     eigenvectors (columns):
       1.000  0.000  0.000  0.000  0.000
       0.000  1.000  0.000  0.000  0.000
       0.000  0.000  1.000  0.000  0.000
       0.000  0.000  0.000  1.000  0.000
       0.000  0.000  0.000  0.000  1.000
     occupation matrix ns (before diag.):
       1.000  0.000  0.000  0.000  0.000
       0.000  1.000  0.000  0.000  0.000
       0.000  0.000  1.000  0.000  0.000
       0.000  0.000  0.000  1.000  0.000
       0.000  0.000  0.000  0.000  1.000
     SPIN  2
     eigenvalues:
       0.900  0.900  0.900  0.900  0.900
     eigenvectors (columns):
       1.000  0.000  0.000  0.000  0.000
       0.000  1.000  0.000  0.000  0.000
       0.000  0.000  1.000  0.000  0.000
       0.000  0.000  0.000  1.000  0.000
       0.000  0.000  0.000  0.000  1.000
     occupation matrix ns (before diag.):
       0.900  0.000  0.000  0.000  0.000
       0.000  0.900  0.000  0.000  0.000
       0.000  0.000  0.900  0.000  0.000
       0.000  0.000  0.000  0.900  0.000
       0.000  0.000  0.000  0.000  0.900
     ------------------------ ATOM    8 ------------------------
     Tr[ns(  8)] (up, down, total) =   5.00000  4.50000  9.50000
     Atomic magnetic moment for atom   8 =   0.50000
     SPIN  1
     eigenvalues:
       1.000  1.000  1.000  1.000  1.000
     eigenvectors (columns):
       1.000  0.000  0.000  0.000  0.000
       0.000  1.000  0.000  0.000  0.000
       0.000  0.000  1.000  0.000  0.000
       0.000  0.000  0.000  1.000  0.000
       0.000  0.000  0.000  0.000  1.000
     occupation matrix ns (before diag.):
       1.000  0.000  0.000  0.000  0.000
       0.000  1.000  0.000  0.000  0.000
       0.000  0.000  1.000  0.000  0.000
       0.000  0.000  0.000  1.000  0.000
       0.000  0.000  0.000  0.000  1.000
     SPIN  2
     eigenvalues:
       0.900  0.900  0.900  0.900  0.900
     eigenvectors (columns):
       1.000  0.000  0.000  0.000  0.000
       0.000  1.000  0.000  0.000  0.000
       0.000  0.000  1.000  0.000  0.000
       0.000  0.000  0.000  1.000  0.000
       0.000  0.000  0.000  0.000  1.000
     occupation matrix ns (before diag.):
       0.900  0.000  0.000  0.000  0.000
       0.000  0.900  0.000  0.000  0.000
       0.000  0.000  0.900  0.000  0.000
       0.000  0.000  0.000  0.900  0.000
       0.000  0.000  0.000  0.000  0.900
     ------------------------ ATOM    9 ------------------------
     Tr[ns(  9)] (up, down, total) =   5.00000  4.50000  9.50000
     Atomic magnetic moment for atom   9 =   0.50000
     SPIN  1
     eigenvalues:
       1.000  1.000  1.000  1.000  1.000
     eigenvectors (columns):
       1.000  0.000  0.000  0.000  0.000
       0.000  1.000  0.000  0.000  0.000
       0.000  0.000  1.000  0.000  0.000
       0.000  0.000  0.000  1.000  0.000
       0.000  0.000  0.000  0.000  1.000
     occupation matrix ns (before diag.):
       1.000  0.000  0.000  0.000  0.000
       0.000  1.000  0.000  0.000  0.000
       0.000  0.000  1.000  0.000  0.000
       0.000  0.000  0.000  1.000  0.000
       0.000  0.000  0.000  0.000  1.000
     SPIN  2
     eigenvalues:
       0.900  0.900  0.900  0.900  0.900
     eigenvectors (columns):
       1.000  0.000  0.000  0.000  0.000
       0.000  1.000  0.000  0.000  0.000
       0.000  0.000  1.000  0.000  0.000
       0.000  0.000  0.000  1.000  0.000
       0.000  0.000  0.000  0.000  1.000
     occupation matrix ns (before diag.):
       0.900  0.000  0.000  0.000  0.000
       0.000  0.900  0.000  0.000  0.000
       0.000  0.000  0.900  0.000  0.000
       0.000  0.000  0.000  0.900  0.000
       0.000  0.000  0.000  0.000  0.900
     ------------------------ ATOM   10 ------------------------
     Tr[ns( 10)] (up, down, total) =   5.00000  4.50000  9.50000
     Atomic magnetic moment for atom  10 =   0.50000
     SPIN  1
     eigenvalues:
       1.000  1.000  1.000  1.000  1.000
     eigenvectors (columns):
       1.000  0.000  0.000  0.000  0.000
       0.000  1.000  0.000  0.000  0.000
       0.000  0.000  1.000  0.000  0.000
       0.000  0.000  0.000  1.000  0.000
       0.000  0.000  0.000  0.000  1.000
     occupation matrix ns (before diag.):
       1.000  0.000  0.000  0.000  0.000
       0.000  1.000  0.000  0.000  0.000
       0.000  0.000  1.000  0.000  0.000
       0.000  0.000  0.000  1.000  0.000
       0.000  0.000  0.000  0.000  1.000
     SPIN  2
     eigenvalues:
       0.900  0.900  0.900  0.900  0.900
     eigenvectors (columns):
       1.000  0.000  0.000  0.000  0.000
       0.000  1.000  0.000  0.000  0.000
       0.000  0.000  1.000  0.000  0.000
       0.000  0.000  0.000  1.000  0.000
       0.000  0.000  0.000  0.000  1.000
     occupation matrix ns (before diag.):
       0.900  0.000  0.000  0.000  0.000
       0.000  0.900  0.000  0.000  0.000
       0.000  0.000  0.900  0.000  0.000
       0.000  0.000  0.000  0.900  0.000
       0.000  0.000  0.000  0.000  0.900
     ------------------------ ATOM   11 ------------------------
     Tr[ns( 11)] (up, down, total) =   5.00000  4.50000  9.50000
     Atomic magnetic moment for atom  11 =   0.50000
     SPIN  1
     eigenvalues:
       1.000  1.000  1.000  1.000  1.000
     eigenvectors (columns):
       1.000  0.000  0.000  0.000  0.000
       0.000  1.000  0.000  0.000  0.000
       0.000  0.000  1.000  0.000  0.000
       0.000  0.000  0.000  1.000  0.000
       0.000  0.000  0.000  0.000  1.000
     occupation matrix ns (before diag.):
       1.000  0.000  0.000  0.000  0.000
       0.000  1.000  0.000  0.000  0.000
       0.000  0.000  1.000  0.000  0.000
       0.000  0.000  0.000  1.000  0.000
       0.000  0.000  0.000  0.000  1.000
     SPIN  2
     eigenvalues:
       0.900  0.900  0.900  0.900  0.900
     eigenvectors (columns):
       1.000  0.000  0.000  0.000  0.000
       0.000  1.000  0.000  0.000  0.000
       0.000  0.000  1.000  0.000  0.000
       0.000  0.000  0.000  1.000  0.000
       0.000  0.000  0.000  0.000  1.000
     occupation matrix ns (before diag.):
       0.900  0.000  0.000  0.000  0.000
       0.000  0.900  0.000  0.000  0.000
       0.000  0.000  0.900  0.000  0.000
       0.000  0.000  0.000  0.900  0.000
       0.000  0.000  0.000  0.000  0.900
     ------------------------ ATOM   12 ------------------------
     Tr[ns( 12)] (up, down, total) =   5.00000  4.50000  9.50000
     Atomic magnetic moment for atom  12 =   0.50000
     SPIN  1
     eigenvalues:
       1.000  1.000  1.000  1.000  1.000
     eigenvectors (columns):
       1.000  0.000  0.000  0.000  0.000
       0.000  1.000  0.000  0.000  0.000
       0.000  0.000  1.000  0.000  0.000
       0.000  0.000  0.000  1.000  0.000
       0.000  0.000  0.000  0.000  1.000
     occupation matrix ns (before diag.):
       1.000  0.000  0.000  0.000  0.000
       0.000  1.000  0.000  0.000  0.000
       0.000  0.000  1.000  0.000  0.000
       0.000  0.000  0.000  1.000  0.000
       0.000  0.000  0.000  0.000  1.000
     SPIN  2
     eigenvalues:
       0.900  0.900  0.900  0.900  0.900
     eigenvectors (columns):
       1.000  0.000  0.000  0.000  0.000
       0.000  1.000  0.000  0.000  0.000
       0.000  0.000  1.000  0.000  0.000
       0.000  0.000  0.000  1.000  0.000
       0.000  0.000  0.000  0.000  1.000
     occupation matrix ns (before diag.):
       0.900  0.000  0.000  0.000  0.000
       0.000  0.900  0.000  0.000  0.000
       0.000  0.000  0.900  0.000  0.000
       0.000  0.000  0.000  0.900  0.000
       0.000  0.000  0.000  0.000  0.900
     ------------------------ ATOM   13 ------------------------
     Tr[ns( 13)] (up, down, total) =   5.00000  4.50000  9.50000
     Atomic magnetic moment for atom  13 =   0.50000
     SPIN  1
     eigenvalues:
       1.000  1.000  1.000  1.000  1.000
     eigenvectors (columns):
       1.000  0.000  0.000  0.000  0.000
       0.000  1.000  0.000  0.000  0.000
       0.000  0.000  1.000  0.000  0.000
       0.000  0.000  0.000  1.000  0.000
       0.000  0.000  0.000  0.000  1.000
     occupation matrix ns (before diag.):
       1.000  0.000  0.000  0.000  0.000
       0.000  1.000  0.000  0.000  0.000
       0.000  0.000  1.000  0.000  0.000
       0.000  0.000  0.000  1.000  0.000
       0.000  0.000  0.000  0.000  1.000
     SPIN  2
     eigenvalues:
       0.900  0.900  0.900  0.900  0.900
     eigenvectors (columns):
       1.000  0.000  0.000  0.000  0.000
       0.000  1.000  0.000  0.000  0.000
       0.000  0.000  1.000  0.000  0.000
       0.000  0.000  0.000  1.000  0.000
       0.000  0.000  0.000  0.000  1.000
     occupation matrix ns (before diag.):
       0.900  0.000  0.000  0.000  0.000
       0.000  0.900  0.000  0.000  0.000
       0.000  0.000  0.900  0.000  0.000
       0.000  0.000  0.000  0.900  0.000
       0.000  0.000  0.000  0.000  0.900
     ------------------------ ATOM   14 ------------------------
     Tr[ns( 14)] (up, down, total) =   5.00000  4.50000  9.50000
     Atomic magnetic moment for atom  14 =   0.50000
     SPIN  1
     eigenvalues:
       1.000  1.000  1.000  1.000  1.000
     eigenvectors (columns):
       1.000  0.000  0.000  0.000  0.000
       0.000  1.000  0.000  0.000  0.000
       0.000  0.000  1.000  0.000  0.000
       0.000  0.000  0.000  1.000  0.000
       0.000  0.000  0.000  0.000  1.000
     occupation matrix ns (before diag.):
       1.000  0.000  0.000  0.000  0.000
       0.000  1.000  0.000  0.000  0.000
       0.000  0.000  1.000  0.000  0.000
       0.000  0.000  0.000  1.000  0.000
       0.000  0.000  0.000  0.000  1.000
     SPIN  2
     eigenvalues:
       0.900  0.900  0.900  0.900  0.900
     eigenvectors (columns):
       1.000  0.000  0.000  0.000  0.000
       0.000  1.000  0.000  0.000  0.000
       0.000  0.000  1.000  0.000  0.000
       0.000  0.000  0.000  1.000  0.000
       0.000  0.000  0.000  0.000  1.000
     occupation matrix ns (before diag.):
       0.900  0.000  0.000  0.000  0.000
       0.000  0.900  0.000  0.000  0.000
       0.000  0.000  0.900  0.000  0.000
       0.000  0.000  0.000  0.900  0.000
       0.000  0.000  0.000  0.000  0.900
     ------------------------ ATOM   15 ------------------------
     Tr[ns( 15)] (up, down, total) =   5.00000  4.50000  9.50000
     Atomic magnetic moment for atom  15 =   0.50000
     SPIN  1
     eigenvalues:
       1.000  1.000  1.000  1.000  1.000
     eigenvectors (columns):
       1.000  0.000  0.000  0.000  0.000
       0.000  1.000  0.000  0.000  0.000
       0.000  0.000  1.000  0.000  0.000
       0.000  0.000  0.000  1.000  0.000
       0.000  0.000  0.000  0.000  1.000
     occupation matrix ns (before diag.):
       1.000  0.000  0.000  0.000  0.000
       0.000  1.000  0.000  0.000  0.000
       0.000  0.000  1.000  0.000  0.000
       0.000  0.000  0.000  1.000  0.000
       0.000  0.000  0.000  0.000  1.000
     SPIN  2
     eigenvalues:
       0.900  0.900  0.900  0.900  0.900
     eigenvectors (columns):
       1.000  0.000  0.000  0.000  0.000
       0.000  1.000  0.000  0.000  0.000
       0.000  0.000  1.000  0.000  0.000
       0.000  0.000  0.000  1.000  0.000
       0.000  0.000  0.000  0.000  1.000
     occupation matrix ns (before diag.):
       0.900  0.000  0.000  0.000  0.000
       0.000  0.900  0.000  0.000  0.000
       0.000  0.000  0.900  0.000  0.000
       0.000  0.000  0.000  0.900  0.000
       0.000  0.000  0.000  0.000  0.900
     ------------------------ ATOM   16 ------------------------
     Tr[ns( 16)] (up, down, total) =   5.00000  4.50000  9.50000
     Atomic magnetic moment for atom  16 =   0.50000
     SPIN  1
     eigenvalues:
       1.000  1.000  1.000  1.000  1.000
     eigenvectors (columns):
       1.000  0.000  0.000  0.000  0.000
       0.000  1.000  0.000  0.000  0.000
       0.000  0.000  1.000  0.000  0.000
       0.000  0.000  0.000  1.000  0.000
       0.000  0.000  0.000  0.000  1.000
     occupation matrix ns (before diag.):
       1.000  0.000  0.000  0.000  0.000
       0.000  1.000  0.000  0.000  0.000
       0.000  0.000  1.000  0.000  0.000
       0.000  0.000  0.000  1.000  0.000
       0.000  0.000  0.000  0.000  1.000
     SPIN  2
     eigenvalues:
       0.900  0.900  0.900  0.900  0.900
     eigenvectors (columns):
       1.000  0.000  0.000  0.000  0.000
       0.000  1.000  0.000  0.000  0.000
       0.000  0.000  1.000  0.000  0.000
       0.000  0.000  0.000  1.000  0.000
       0.000  0.000  0.000  0.000  1.000
     occupation matrix ns (before diag.):
       0.900  0.000  0.000  0.000  0.000
       0.000  0.900  0.000  0.000  0.000
       0.000  0.000  0.900  0.000  0.000
       0.000  0.000  0.000  0.900  0.000
       0.000  0.000  0.000  0.000  0.900

     Number of occupied Hubbard levels =  152.0000

     Atomic wfc used for Hubbard projectors are orthogonalized

     Starting wfcs are  204 randomized atomic wfcs
     Checking if some PAW data can be deallocated... 

     total cpu time spent up to now is      784.8 secs

     Self-consistent Calculation

     iteration #  1     ecut=    90.00 Ry     beta= 0.30
     Davidson diagonalization with overlap
     ethr =  1.00E-02,  avg # of iterations =  3.1

     =================== HUBBARD OCCUPATIONS ===================
     ------------------------ ATOM    1 ------------------------
     Tr[ns(  1)] (up, down, total) =   4.96926  4.07427  9.04354
     Atomic magnetic moment for atom   1 =   0.89499
     SPIN  1
     eigenvalues:
       0.979  0.994  0.999  0.999  0.999
     eigenvectors (columns):
      -0.520 -0.033 -0.800 -0.291  0.063
      -0.005 -0.050  0.075  0.024  0.996
       0.037 -0.994 -0.019  0.086 -0.051
       0.852  0.020 -0.474 -0.215  0.046
       0.031  0.087 -0.361  0.928  0.010
     occupation matrix ns (before diag.):
       0.993 -0.000  0.000  0.009  0.000
      -0.000  0.999 -0.000  0.000  0.000
       0.000 -0.000  0.994 -0.001  0.000
       0.009  0.000 -0.001  0.984 -0.001
       0.000  0.000  0.000 -0.001  0.999
     SPIN  2
     eigenvalues:
       0.296  0.906  0.946  0.954  0.972
     eigenvectors (columns):
      -0.010 -0.360  0.275 -0.068  0.889
       0.004 -0.207 -0.954  0.030  0.213
      -1.000 -0.017 -0.005 -0.013 -0.018
      -0.023  0.905 -0.104  0.079  0.404
      -0.012 -0.090  0.056  0.994  0.022
     occupation matrix ns (before diag.):
       0.961  0.002 -0.007  0.022 -0.001
       0.002  0.946  0.002  0.010 -0.000
      -0.007  0.002  0.297 -0.015 -0.008
       0.022  0.010 -0.015  0.917  0.004
      -0.001 -0.000 -0.008  0.004  0.953
     ------------------------ ATOM    2 ------------------------
     Tr[ns(  2)] (up, down, total) =   4.95371  4.15717  9.11087
     Atomic magnetic moment for atom   2 =   0.79654
     SPIN  1
     eigenvalues:
       0.961  0.996  0.999  0.999  0.999
     eigenvectors (columns):
       0.684  0.710  0.084  0.044  0.138
      -0.041 -0.114  0.081 -0.447  0.882
       0.036 -0.071  0.903 -0.333 -0.259
      -0.152 -0.025  0.412  0.820  0.367
       0.711 -0.691 -0.034  0.124  0.010
     occupation matrix ns (before diag.):
       0.980  0.001 -0.001  0.004 -0.017
       0.001  0.999 -0.000 -0.000  0.001
      -0.001 -0.000  0.999  0.000 -0.001
       0.004 -0.000  0.000  0.998  0.004
      -0.017  0.001 -0.001  0.004  0.978
     SPIN  2
     eigenvalues:
       0.309  0.918  0.966  0.976  0.988
     eigenvectors (columns):
       0.255 -0.930  0.051 -0.255  0.042
      -0.008  0.084 -0.699 -0.530 -0.472
       0.034 -0.060  0.435  0.197 -0.876
       0.038  0.259  0.562 -0.779  0.088
       0.965  0.239 -0.057  0.087  0.013
     occupation matrix ns (before diag.):
       0.882  0.006 -0.010  0.007 -0.151
       0.006  0.973  0.008  0.002  0.004
      -0.010  0.008  0.982 -0.003 -0.021
       0.007  0.002 -0.003  0.968 -0.028
      -0.151  0.004 -0.021 -0.028  0.351
     ------------------------ ATOM    3 ------------------------
     Tr[ns(  3)] (up, down, total) =   4.96767  4.06026  9.02793
     Atomic magnetic moment for atom   3 =   0.90741
     SPIN  1
     eigenvalues:
       0.976  0.995  0.998  0.999  0.999
     eigenvectors (columns):
       0.652  0.004 -0.022  0.742 -0.157
       0.039 -0.056  0.039 -0.237 -0.968
      -0.046 -0.996  0.010  0.055  0.043
      -0.755  0.062  0.026  0.625 -0.185
       0.033  0.011  0.999  0.009  0.038
     occupation matrix ns (before diag.):
       0.989 -0.001  0.001  0.011 -0.000
      -0.001  0.999 -0.000  0.001 -0.000
       0.001 -0.000  0.995 -0.001  0.000
       0.011  0.001 -0.001  0.986  0.001
      -0.000 -0.000  0.000  0.001  0.998
     SPIN  2
     eigenvalues:
       0.273  0.874  0.958  0.974  0.981
     eigenvectors (columns):
      -0.061  0.551  0.027  0.045  0.831
       0.012  0.001  0.979  0.201 -0.042
       0.998  0.022 -0.009 -0.005  0.059
      -0.013 -0.832  0.004  0.102  0.545
       0.007  0.062 -0.204  0.973 -0.086
     occupation matrix ns (before diag.):
       0.946 -0.000  0.042  0.048 -0.004
      -0.000  0.959 -0.009  0.000  0.003
       0.042 -0.009  0.276  0.011 -0.005
       0.048  0.000  0.011  0.907  0.005
      -0.004  0.003 -0.005  0.005  0.973
     ------------------------ ATOM    4 ------------------------
     Tr[ns(  4)] (up, down, total) =   4.96703  4.02566  8.99269
     Atomic magnetic moment for atom   4 =   0.94136
     SPIN  1
     eigenvalues:
       0.975  0.995  0.999  0.999  0.999
     eigenvectors (columns):
      -0.987 -0.035 -0.070  0.137 -0.015
      -0.031 -0.040 -0.021 -0.139  0.989
      -0.034 -0.049  0.967  0.244  0.052
       0.144  0.073 -0.238  0.948  0.136
      -0.048  0.995  0.062 -0.059  0.032
     occupation matrix ns (before diag.):
       0.976 -0.001 -0.001  0.003 -0.001
      -0.001  0.999 -0.000  0.000  0.000
      -0.001 -0.000  0.999  0.000  0.000
       0.003  0.000  0.000  0.998 -0.000
      -0.001  0.000  0.000 -0.000  0.995
     SPIN  2
     eigenvalues:
       0.274  0.821  0.969  0.978  0.983
     eigenvectors (columns):
       0.021  0.999 -0.026 -0.017 -0.034
      -0.010 -0.013 -0.945  0.245  0.217
      -0.022  0.040  0.324  0.783  0.529
       0.081  0.018  0.039 -0.568  0.818
       0.996 -0.022 -0.005  0.067 -0.052
     occupation matrix ns (before diag.):
       0.821  0.002 -0.006 -0.004 -0.011
       0.002  0.970  0.003  0.002  0.007
      -0.006  0.003  0.978  0.003  0.016
      -0.004  0.002  0.003  0.977 -0.057
      -0.011  0.007  0.016 -0.057  0.279
     ------------------------ ATOM    5 ------------------------
     Tr[ns(  5)] (up, down, total) =   4.96862  4.04998  9.01860
     Atomic magnetic moment for atom   5 =   0.91864
     SPIN  1
     eigenvalues:
       0.977  0.995  0.998  0.999  0.999
     eigenvectors (columns):
       0.627  0.045  0.080  0.729  0.259
       0.012 -0.054 -0.042 -0.336  0.939
       0.063 -0.996  0.016  0.023 -0.050
      -0.773 -0.044  0.160  0.572  0.219
       0.074  0.017  0.983 -0.167 -0.015
     occupation matrix ns (before diag.):
       0.990 -0.000 -0.001  0.011 -0.001
      -0.000  0.999 -0.000  0.000 -0.000
      -0.001 -0.000  0.995  0.001 -0.000
       0.011  0.000  0.001  0.986  0.001
      -0.001 -0.000 -0.000  0.001  0.998
     SPIN  2
     eigenvalues:
       0.264  0.866  0.964  0.974  0.982
     eigenvectors (columns):
      -0.028  0.513  0.045  0.083 -0.853
       0.060  0.028 -0.989 -0.127 -0.049
       0.998 -0.004  0.061  0.007 -0.031
      -0.019 -0.856 -0.015  0.116 -0.503
       0.005  0.061 -0.130  0.982  0.125
     occupation matrix ns (before diag.):
       0.951  0.000  0.020  0.050 -0.004
       0.000  0.961 -0.042  0.003 -0.002
       0.020 -0.042  0.267  0.013 -0.003
       0.050  0.003  0.013  0.897  0.005
      -0.004 -0.002 -0.003  0.005  0.974
     ------------------------ ATOM    6 ------------------------
     Tr[ns(  6)] (up, down, total) =   4.96876  4.05700  9.02576
     Atomic magnetic moment for atom   6 =   0.91176
     SPIN  1
     eigenvalues:
       0.977  0.996  0.998  0.999  0.999
     eigenvectors (columns):
      -0.978 -0.063 -0.093  0.178  0.007
      -0.071 -0.064  0.037 -0.362 -0.927
      -0.054 -0.087  0.977  0.184 -0.022
       0.176  0.007 -0.167  0.897 -0.371
      -0.073  0.992  0.083 -0.002 -0.058
     occupation matrix ns (before diag.):
       0.978 -0.002 -0.001  0.004 -0.001
      -0.002  0.999 -0.000  0.000  0.000
      -0.001 -0.000  0.998  0.000  0.000
       0.004  0.000  0.000  0.998  0.000
      -0.001  0.000  0.000  0.000  0.995
     SPIN  2
     eigenvalues:
       0.265  0.869  0.963  0.978  0.983
     eigenvectors (columns):
       0.026  0.996  0.023 -0.063 -0.043
      -0.056  0.032 -0.983  0.163 -0.058
      -0.045  0.056  0.171  0.980 -0.072
      -0.001 -0.049  0.044 -0.078 -0.995
       0.997 -0.021 -0.048  0.055 -0.006
     occupation matrix ns (before diag.):
       0.869 -0.002 -0.005  0.006 -0.016
      -0.002  0.961  0.001  0.001  0.039
      -0.005  0.001  0.975  0.001  0.032
       0.006  0.001  0.001  0.982  0.001
      -0.016  0.039  0.032  0.001  0.269
     ------------------------ ATOM    7 ------------------------
     Tr[ns(  7)] (up, down, total) =   4.96857  4.05471  9.02327
     Atomic magnetic moment for atom   7 =   0.91386
     SPIN  1
     eigenvalues:
       0.977  0.995  0.998  0.999  0.999
     eigenvectors (columns):
       0.637  0.036  0.105  0.724  0.239
       0.021 -0.064 -0.045 -0.320  0.944
       0.050 -0.996  0.024  0.022 -0.060
      -0.766 -0.035  0.173  0.578  0.219
       0.067  0.023  0.978 -0.195 -0.020
     occupation matrix ns (before diag.):
       0.990 -0.000 -0.001  0.011 -0.001
      -0.000  0.999 -0.000  0.000 -0.000
      -0.001 -0.000  0.995  0.001 -0.000
       0.011  0.000  0.001  0.986  0.001
      -0.001 -0.000 -0.000  0.001  0.998
     SPIN  2
     eigenvalues:
       0.267  0.868  0.962  0.976  0.982
     eigenvectors (columns):
      -0.007  0.522  0.047  0.023 -0.851
       0.055  0.051 -0.984 -0.156 -0.027
       0.998 -0.019  0.054  0.009 -0.017
      -0.024 -0.850 -0.040  0.053 -0.522
       0.002  0.042 -0.155  0.986  0.044
     occupation matrix ns (before diag.):
       0.951 -0.002  0.006  0.050 -0.002
      -0.002  0.960 -0.038  0.005 -0.002
       0.006 -0.038  0.270  0.015 -0.001
       0.050  0.005  0.015  0.899  0.004
      -0.002 -0.002 -0.001  0.004  0.975
     ------------------------ ATOM    8 ------------------------
     Tr[ns(  8)] (up, down, total) =   4.96843  4.05549  9.02392
     Atomic magnetic moment for atom   8 =   0.91294
     SPIN  1
     eigenvalues:
       0.977  0.995  0.998  0.999  0.999
     eigenvectors (columns):
       0.982 -0.038  0.090 -0.162 -0.020
       0.071 -0.066 -0.030  0.316  0.943
       0.059 -0.060 -0.981 -0.175  0.018
      -0.160  0.006  0.160 -0.918  0.325
       0.047  0.995 -0.058  0.010  0.061
     occupation matrix ns (before diag.):
       0.978 -0.002 -0.001  0.003 -0.001
      -0.002  0.999 -0.000  0.000  0.000
      -0.001 -0.000  0.998  0.000  0.000
       0.003  0.000  0.000  0.998  0.000
      -0.001  0.000  0.000  0.000  0.995
     SPIN  2
     eigenvalues:
       0.265  0.872  0.962  0.974  0.982
     eigenvectors (columns):
       0.021  0.996 -0.038  0.063 -0.045
      -0.053  0.046  0.993 -0.094  0.010
      -0.034  0.060 -0.099 -0.993  0.006
       0.006 -0.044  0.011 -0.010 -0.999
       0.998 -0.016  0.050 -0.040  0.008
     occupation matrix ns (before diag.):
       0.873 -0.003 -0.006  0.005 -0.013
      -0.003  0.960 -0.000  0.000  0.037
      -0.006 -0.000  0.973  0.000  0.024
       0.005  0.000  0.000  0.982 -0.004
      -0.013  0.037  0.024 -0.004  0.268
     ------------------------ ATOM    9 ------------------------
     Tr[ns(  9)] (up, down, total) =   4.96768  4.05312  9.02080
     Atomic magnetic moment for atom   9 =   0.91457
     SPIN  1
     eigenvalues:
       0.976  0.995  0.998  0.999  0.999
     eigenvectors (columns):
       0.635  0.048  0.098  0.729  0.232
       0.021 -0.045 -0.040 -0.312  0.948
       0.042 -0.997  0.030  0.037 -0.035
      -0.768 -0.014  0.163  0.580  0.214
       0.064  0.026  0.981 -0.183 -0.019
     occupation matrix ns (before diag.):
       0.990 -0.000 -0.000  0.011 -0.001
      -0.000  0.999 -0.000  0.000 -0.000
      -0.000 -0.000  0.995  0.001  0.000
       0.011  0.000  0.001  0.985  0.001
      -0.001 -0.000  0.000  0.001  0.998
     SPIN  2
     eigenvalues:
       0.267  0.867  0.962  0.975  0.982
     eigenvectors (columns):
       0.023 -0.545 -0.008  0.023  0.838
      -0.054 -0.002  0.998 -0.039  0.011
      -0.998  0.011 -0.055  0.002  0.033
       0.027  0.836  0.001  0.090  0.541
      -0.003 -0.063  0.040  0.995 -0.068
     occupation matrix ns (before diag.):
       0.948  0.001  0.017  0.052 -0.004
       0.001  0.960 -0.038  0.001 -0.001
       0.017 -0.038  0.270  0.018 -0.002
       0.052  0.001  0.018  0.901  0.005
      -0.004 -0.001 -0.002  0.005  0.975
     ------------------------ ATOM   10 ------------------------
     Tr[ns( 10)] (up, down, total) =   4.96839  4.05567  9.02407
     Atomic magnetic moment for atom  10 =   0.91272
     SPIN  1
     eigenvalues:
       0.977  0.995  0.998  0.999  0.999
     eigenvectors (columns):
       0.982 -0.017  0.087  0.168 -0.008
       0.066 -0.066 -0.031 -0.330  0.939
       0.061 -0.064 -0.985  0.151  0.011
      -0.166  0.019  0.133  0.916  0.340
       0.028  0.995 -0.066 -0.027  0.057
     occupation matrix ns (before diag.):
       0.978 -0.001 -0.001  0.004 -0.001
      -0.001  0.999 -0.000  0.000  0.000
      -0.001 -0.000  0.998  0.000  0.000
       0.004  0.000  0.000  0.998  0.000
      -0.001  0.000  0.000  0.000  0.995
     SPIN  2
     eigenvalues:
       0.267  0.872  0.962  0.975  0.981
     eigenvectors (columns):
       0.005  0.996 -0.072  0.057  0.010
      -0.060  0.075  0.993 -0.065 -0.004
      -0.050  0.051 -0.072 -0.993  0.057
       0.035 -0.012  0.010  0.054  0.998
       0.996  0.002  0.056 -0.056 -0.032
     occupation matrix ns (before diag.):
       0.873 -0.007 -0.005  0.001 -0.004
      -0.007  0.959 -0.002  0.001  0.041
      -0.005 -0.002  0.972  0.002  0.036
       0.001  0.001  0.002  0.980 -0.025
      -0.004  0.041  0.036 -0.025  0.272
     ------------------------ ATOM   11 ------------------------
     Tr[ns( 11)] (up, down, total) =   4.96841  4.04807  9.01648
     Atomic magnetic moment for atom  11 =   0.92033
     SPIN  1
     eigenvalues:
       0.977  0.995  0.999  0.999  0.999
     eigenvectors (columns):
      -0.613  0.091  0.207 -0.734  0.185
      -0.069 -0.040 -0.070  0.274  0.956
      -0.085 -0.994 -0.016 -0.065 -0.031
       0.782 -0.041  0.185 -0.549  0.226
      -0.024 -0.031  0.958  0.284 -0.015
     occupation matrix ns (before diag.):
       0.991 -0.001 -0.001  0.010 -0.000
      -0.001  0.999 -0.000  0.001 -0.000
      -0.001 -0.000  0.995  0.001 -0.000
       0.010  0.001  0.001  0.986  0.000
      -0.000 -0.000 -0.000  0.000  0.999
     SPIN  2
     eigenvalues:
       0.273  0.866  0.960  0.968  0.980
     eigenvectors (columns):
       0.030 -0.565 -0.003 -0.218  0.795
      -0.005 -0.059 -0.995  0.080 -0.024
      -0.999  0.009  0.002 -0.019  0.039
       0.030  0.821 -0.068 -0.068  0.563
      -0.010 -0.064  0.076  0.970  0.221
     occupation matrix ns (before diag.):
       0.943 -0.004  0.022  0.052 -0.001
      -0.004  0.960 -0.003  0.004  0.000
       0.022 -0.003  0.275  0.021 -0.007
       0.052  0.004  0.021  0.903  0.007
      -0.001  0.000 -0.007  0.007  0.968
     ------------------------ ATOM   12 ------------------------
     Tr[ns( 12)] (up, down, total) =   4.96744  4.06472  9.03216
     Atomic magnetic moment for atom  12 =   0.90271
     SPIN  1
     eigenvalues:
       0.976  0.995  0.998  0.999  0.999
     eigenvectors (columns):
       0.982  0.005 -0.081  0.168  0.015
       0.069 -0.041  0.014 -0.313 -0.946
       0.044 -0.069  0.970  0.221 -0.053
      -0.168 -0.001 -0.217  0.908 -0.316
       0.001  0.997  0.068  0.002 -0.043
     occupation matrix ns (before diag.):
       0.977 -0.002 -0.001  0.004 -0.000
      -0.002  0.999 -0.000  0.000  0.000
      -0.001 -0.000  0.998  0.000  0.000
       0.004  0.000  0.000  0.998  0.000
      -0.000  0.000  0.000  0.000  0.995
     SPIN  2
     eigenvalues:
       0.273  0.877  0.962  0.973  0.981
     eigenvectors (columns):
       0.020 -0.996 -0.051 -0.026  0.061
      -0.035 -0.050  0.998 -0.007  0.025
      -0.052 -0.022  0.002  0.994  0.090
       0.032  0.064 -0.021 -0.086  0.993
       0.997  0.015  0.037  0.055 -0.027
     occupation matrix ns (before diag.):
       0.877 -0.004 -0.001  0.006 -0.012
      -0.004  0.961 -0.001  0.002  0.024
      -0.001 -0.001  0.971  0.002  0.036
       0.006  0.002  0.002  0.979 -0.022
      -0.012  0.024  0.036 -0.022  0.277
     ------------------------ ATOM   13 ------------------------
     Tr[ns( 13)] (up, down, total) =   4.96111  4.34613  9.30724
     Atomic magnetic moment for atom  13 =   0.61498
     SPIN  1
     eigenvalues:
       0.975  0.993  0.997  0.998  0.999
     eigenvectors (columns):
       0.473  0.484 -0.125 -0.643  0.336
      -0.107  0.019 -0.627 -0.311 -0.706
       0.656 -0.747 -0.063 -0.082 -0.028
      -0.574 -0.453 -0.145 -0.511  0.428
      -0.066 -0.053  0.752 -0.471 -0.453
     occupation matrix ns (before diag.):
       0.992  0.001 -0.005  0.007  0.001
       0.001  0.998  0.002 -0.002  0.000
      -0.005  0.002  0.985  0.007  0.001
       0.007 -0.002  0.007  0.989 -0.001
       0.001  0.000  0.001 -0.001  0.997
     SPIN  2
     eigenvalues:
       0.521  0.910  0.961  0.970  0.984
     eigenvectors (columns):
      -0.168 -0.800 -0.283  0.458 -0.204
       0.129 -0.065 -0.444 -0.622 -0.629
      -0.913  0.328 -0.163  0.063 -0.168
       0.340  0.485 -0.233  0.632 -0.441
       0.074  0.112 -0.801 -0.014  0.583
     occupation matrix ns (before diag.):
       0.919  0.007 -0.053  0.050  0.007
       0.007  0.966  0.055 -0.015 -0.012
      -0.053  0.055  0.589  0.131  0.026
       0.050 -0.015  0.131  0.906 -0.020
       0.007 -0.012  0.026 -0.020  0.966
     ------------------------ ATOM   14 ------------------------
     Tr[ns( 14)] (up, down, total) =   4.96815  4.06149  9.02964
     Atomic magnetic moment for atom  14 =   0.90666
     SPIN  1
     eigenvalues:
       0.977  0.996  0.998  0.999  0.999
     eigenvectors (columns):
      -0.917 -0.353  0.013  0.174 -0.066
      -0.071 -0.125  0.027 -0.270  0.952
      -0.035 -0.060 -0.962 -0.259 -0.057
       0.119  0.075 -0.271  0.909  0.284
      -0.372  0.922 -0.032 -0.061  0.077
     occupation matrix ns (before diag.):
       0.980 -0.002 -0.001  0.002 -0.007
      -0.002  0.999 -0.000  0.000 -0.000
      -0.001 -0.000  0.998  0.000 -0.000
       0.002  0.000  0.000  0.998  0.001
      -0.007 -0.000 -0.000  0.001  0.993
     SPIN  2
     eigenvalues:
       0.270  0.884  0.962  0.971  0.975
     eigenvectors (columns):
       0.087 -0.989 -0.065 -0.102 -0.004
      -0.031  0.001 -0.858  0.509 -0.067
      -0.067 -0.098  0.430  0.638 -0.628
       0.053  0.083 -0.274 -0.561 -0.775
       0.992  0.076  0.023  0.098 -0.003
     occupation matrix ns (before diag.):
       0.881  0.001 -0.004  0.004 -0.054
       0.001  0.963  0.002 -0.001  0.022
      -0.004  0.002  0.967  0.006  0.047
       0.004 -0.001  0.006  0.970 -0.037
      -0.054  0.022  0.047 -0.037  0.281
     ------------------------ ATOM   15 ------------------------
     Tr[ns( 15)] (up, down, total) =   4.97177  4.60199  9.57376
     Atomic magnetic moment for atom  15 =   0.36979
     SPIN  1
     eigenvalues:
       0.986  0.993  0.997  0.998  0.998
     eigenvectors (columns):
      -0.340  0.636  0.612 -0.324 -0.019
       0.004 -0.344  0.618  0.517 -0.482
      -0.350  0.463 -0.481  0.398 -0.523
      -0.679 -0.509 -0.097 -0.454 -0.253
      -0.548 -0.062  0.051  0.513  0.655
     occupation matrix ns (before diag.):
       0.994  0.001 -0.002 -0.001 -0.002
       0.001  0.997  0.001 -0.001 -0.000
      -0.002  0.001  0.995 -0.002 -0.002
      -0.001 -0.001 -0.002  0.991 -0.004
      -0.002 -0.000 -0.002 -0.004  0.994
     SPIN  2
     eigenvalues:
       0.789  0.894  0.946  0.982  0.991
     eigenvectors (columns):
       0.405  0.231  0.857 -0.208 -0.073
      -0.041  0.406 -0.108 -0.364  0.830
       0.656 -0.672 -0.121 -0.077  0.312
       0.518  0.443 -0.486 -0.360 -0.412
       0.368  0.366 -0.054  0.830  0.196
     occupation matrix ns (before diag.):
       0.919 -0.002 -0.034 -0.034 -0.035
      -0.002  0.973  0.031 -0.017 -0.009
      -0.034  0.031  0.859 -0.043 -0.025
      -0.034 -0.017 -0.043  0.906 -0.053
      -0.035 -0.009 -0.025 -0.053  0.944
     ------------------------ ATOM   16 ------------------------
     Tr[ns( 16)] (up, down, total) =   4.97793  4.42512  9.40306
     Atomic magnetic moment for atom  16 =   0.55281
     SPIN  1
     eigenvalues:
       0.990  0.995  0.996  0.998  0.999
     eigenvectors (columns):
       0.725 -0.663 -0.050  0.143 -0.105
       0.110 -0.058 -0.504 -0.478  0.709
       0.006 -0.156  0.832 -0.075  0.527
       0.228  0.360 -0.134  0.785  0.428
       0.640  0.635  0.183 -0.358 -0.159
     occupation matrix ns (before diag.):
       0.992 -0.001 -0.000 -0.001 -0.002
      -0.001  0.998  0.001 -0.000 -0.000
      -0.000  0.001  0.997  0.001 -0.000
      -0.001 -0.000  0.001  0.997 -0.002
      -0.002 -0.000 -0.000 -0.002  0.993
     SPIN  2
     eigenvalues:
       0.577  0.917  0.961  0.982  0.988
     eigenvectors (columns):
      -0.072 -0.810  0.535 -0.227  0.034
      -0.045  0.095  0.503  0.858 -0.012
      -0.161 -0.556 -0.664  0.441 -0.174
       0.323  0.021  0.108 -0.063 -0.938
       0.929 -0.162 -0.086  0.122  0.298
     occupation matrix ns (before diag.):
       0.931 -0.002 -0.027  0.009  0.020
      -0.002  0.976  0.008  0.005  0.019
      -0.027  0.008  0.943  0.024  0.053
       0.009  0.005  0.024  0.945 -0.123
       0.020  0.019  0.053 -0.123  0.631

     Number of occupied Hubbard levels =  145.6738

     negative rho (up, down):  1.570E-04 8.280E-05

     total cpu time spent up to now is     2238.3 secs

     total energy              =   -4026.98774626 Ry
     estimated scf accuracy    <      18.88528330 Ry

     total magnetization       =    16.01 Bohr mag/cell
     absolute magnetization    =    17.13 Bohr mag/cell

     iteration #  2     ecut=    90.00 Ry     beta= 0.30
     Davidson diagonalization with overlap
     ethr =  7.10E-03,  avg # of iterations =  3.7

     negative rho (up, down):  1.746E-04 1.059E-04

     total cpu time spent up to now is     3681.9 secs

     total energy              =   -4014.54331980 Ry
     estimated scf accuracy    <     725.88045216 Ry

     total magnetization       =    13.03 Bohr mag/cell
     absolute magnetization    =    14.54 Bohr mag/cell

     iteration #  3     ecut=    90.00 Ry     beta= 0.30
     Davidson diagonalization with overlap
     ethr =  7.10E-03,  avg # of iterations =  2.4

     negative rho (up, down):  1.336E-04 8.417E-05

     total cpu time spent up to now is     5048.0 secs

     total energy              =   -4026.74541308 Ry
     estimated scf accuracy    <     119.65385294 Ry

     total magnetization       =     9.43 Bohr mag/cell
     absolute magnetization    =    11.73 Bohr mag/cell

     iteration #  4     ecut=    90.00 Ry     beta= 0.30
     Davidson diagonalization with overlap
     ethr =  7.10E-03,  avg # of iterations =  3.3

     negative rho (up, down):  1.001E-04 5.329E-05

     total cpu time spent up to now is     6473.8 secs

     total energy              =   -4022.96589176 Ry
     estimated scf accuracy    <     287.43954225 Ry

     total magnetization       =    13.93 Bohr mag/cell
     absolute magnetization    =    15.55 Bohr mag/cell

     iteration #  5     ecut=    90.00 Ry     beta= 0.30
     Davidson diagonalization with overlap
     ethr =  7.10E-03,  avg # of iterations =  2.4

     negative rho (up, down):  1.173E-04 6.814E-05

     total cpu time spent up to now is     7847.6 secs

     total energy              =   -4030.94451712 Ry
     estimated scf accuracy    <      12.15957430 Ry

     total magnetization       =    12.86 Bohr mag/cell
     absolute magnetization    =    13.69 Bohr mag/cell

     iteration #  6     ecut=    90.00 Ry     beta= 0.30
     Davidson diagonalization with overlap
     ethr =  4.57E-03,  avg # of iterations =  1.9

     negative rho (up, down):  1.418E-04 9.155E-05

     total cpu time spent up to now is     9206.4 secs

     total energy              =   -4031.22105014 Ry
     estimated scf accuracy    <       9.70077172 Ry

     total magnetization       =    10.64 Bohr mag/cell
     absolute magnetization    =    12.32 Bohr mag/cell

     iteration #  7     ecut=    90.00 Ry     beta= 0.30
     Davidson diagonalization with overlap
     ethr =  3.65E-03,  avg # of iterations =  1.8

     negative rho (up, down):  1.779E-04 1.203E-04

     total cpu time spent up to now is    10552.2 secs

     total energy              =   -4031.67213398 Ry
     estimated scf accuracy    <       9.70940922 Ry

     total magnetization       =    14.00 Bohr mag/cell
     absolute magnetization    =    14.39 Bohr mag/cell

     iteration #  8     ecut=    90.00 Ry     beta= 0.30
     Davidson diagonalization with overlap
     ethr =  3.65E-03,  avg # of iterations =  1.1

     negative rho (up, down):  1.954E-04 1.332E-04

     total cpu time spent up to now is    11836.5 secs

     total energy              =   -4031.99443954 Ry
     estimated scf accuracy    <       2.09730216 Ry

     total magnetization       =    11.77 Bohr mag/cell
     absolute magnetization    =    12.15 Bohr mag/cell

     iteration #  9     ecut=    90.00 Ry     beta= 0.30
     Davidson diagonalization with overlap
     ethr =  7.88E-04,  avg # of iterations =  2.0

     negative rho (up, down):  2.103E-04 1.437E-04

     total cpu time spent up to now is    13208.2 secs

     total energy              =   -4032.08134152 Ry
     estimated scf accuracy    <       0.36801417 Ry

     total magnetization       =    11.73 Bohr mag/cell
     absolute magnetization    =    12.14 Bohr mag/cell

     iteration # 10     ecut=    90.00 Ry     beta= 0.30
     Davidson diagonalization with overlap
     c_bands:  1 eigenvalues not converged
     ethr =  1.38E-04,  avg # of iterations = 13.0

     negative rho (up, down):  2.313E-04 1.600E-04

     total cpu time spent up to now is    14996.5 secs

     total energy              =   -4032.11724264 Ry
     estimated scf accuracy    <       0.33177194 Ry

     total magnetization       =    11.56 Bohr mag/cell
     absolute magnetization    =    12.01 Bohr mag/cell

     iteration # 11     ecut=    90.00 Ry     beta= 0.30
     Davidson diagonalization with overlap
     ethr =  1.25E-04,  avg # of iterations =  1.4

     negative rho (up, down):  2.506E-04 1.752E-04

     total cpu time spent up to now is    16308.4 secs

     total energy              =   -4032.13260661 Ry
     estimated scf accuracy    <       0.07865022 Ry

     total magnetization       =    11.67 Bohr mag/cell
     absolute magnetization    =    12.10 Bohr mag/cell

     iteration # 12     ecut=    90.00 Ry     beta= 0.30
     Davidson diagonalization with overlap
     c_bands:  1 eigenvalues not converged
     c_bands:  2 eigenvalues not converged
     c_bands:  1 eigenvalues not converged
     ethr =  2.96E-05,  avg # of iterations =  7.9

     negative rho (up, down):  2.739E-04 1.950E-04

     total cpu time spent up to now is    17875.3 secs

     total energy              =   -4032.14211737 Ry
     estimated scf accuracy    <       0.03964483 Ry

     total magnetization       =    11.67 Bohr mag/cell
     absolute magnetization    =    12.10 Bohr mag/cell

     iteration # 13     ecut=    90.00 Ry     beta= 0.30
     Davidson diagonalization with overlap
     ethr =  1.49E-05,  avg # of iterations =  7.0

     negative rho (up, down):  2.965E-04 2.146E-04

     total cpu time spent up to now is    19392.0 secs

     total energy              =   -4032.14714791 Ry
     estimated scf accuracy    <       0.07248247 Ry

     total magnetization       =    11.58 Bohr mag/cell
     absolute magnetization    =    12.05 Bohr mag/cell

     iteration # 14     ecut=    90.00 Ry     beta= 0.30
     Davidson diagonalization with overlap
     ethr =  1.49E-05,  avg # of iterations =  2.3

     negative rho (up, down):  3.471E-04 2.733E-04

     total cpu time spent up to now is    20749.6 secs

     total energy              =   -4032.15050838 Ry
     estimated scf accuracy    <       0.04138065 Ry

     total magnetization       =    11.66 Bohr mag/cell
     absolute magnetization    =    12.14 Bohr mag/cell

     iteration # 15     ecut=    90.00 Ry     beta= 0.30
     Davidson diagonalization with overlap
     ethr =  1.49E-05,  avg # of iterations =  3.2

     negative rho (up, down):  3.606E-04 2.967E-04

     total cpu time spent up to now is    22126.4 secs

     total energy              =   -4032.15331639 Ry
     estimated scf accuracy    <       0.01633419 Ry

     total magnetization       =    11.64 Bohr mag/cell
     absolute magnetization    =    12.12 Bohr mag/cell

     iteration # 16     ecut=    90.00 Ry     beta= 0.30
     Davidson diagonalization with overlap
     c_bands:  1 eigenvalues not converged
     ethr =  6.14E-06,  avg # of iterations =  9.8

     negative rho (up, down):  3.903E-04 3.755E-04

     total cpu time spent up to now is    23729.6 secs

     total energy              =   -4032.15397279 Ry
     estimated scf accuracy    <       0.00432949 Ry

     total magnetization       =    11.66 Bohr mag/cell
     absolute magnetization    =    12.13 Bohr mag/cell

     iteration # 17     ecut=    90.00 Ry     beta= 0.30
     Davidson diagonalization with overlap
     ethr =  1.63E-06,  avg # of iterations =  7.6

     negative rho (up, down):  3.670E-04 3.025E-04

     total cpu time spent up to now is    25296.1 secs

     total energy              =   -4032.15475823 Ry
     estimated scf accuracy    <       0.00288394 Ry

     total magnetization       =    11.68 Bohr mag/cell
     absolute magnetization    =    12.16 Bohr mag/cell

     iteration # 18     ecut=    90.00 Ry     beta= 0.30
     Davidson diagonalization with overlap
     ethr =  1.08E-06,  avg # of iterations =  1.6

     negative rho (up, down):  3.671E-04 2.992E-04

     total cpu time spent up to now is    26618.4 secs

     total energy              =   -4032.15534727 Ry
     estimated scf accuracy    <       0.00133902 Ry

     total magnetization       =    11.67 Bohr mag/cell
     absolute magnetization    =    12.14 Bohr mag/cell

     iteration # 19     ecut=    90.00 Ry     beta= 0.30
     Davidson diagonalization with overlap
     ethr =  5.03E-07,  avg # of iterations =  1.4

     negative rho (up, down):  3.715E-04 3.049E-04

     total cpu time spent up to now is    27919.2 secs

     total energy              =   -4032.15576116 Ry
     estimated scf accuracy    <       0.00057105 Ry

     total magnetization       =    11.67 Bohr mag/cell
     absolute magnetization    =    12.13 Bohr mag/cell

     iteration # 20     ecut=    90.00 Ry     beta= 0.30
     Davidson diagonalization with overlap
     ethr =  2.15E-07,  avg # of iterations =  1.6

     negative rho (up, down):  3.661E-04 2.920E-04

     total cpu time spent up to now is    29242.8 secs

     total energy              =   -4032.15608169 Ry
     estimated scf accuracy    <       0.00045861 Ry

     total magnetization       =    11.66 Bohr mag/cell
     absolute magnetization    =    12.12 Bohr mag/cell

     iteration # 21     ecut=    90.00 Ry     beta= 0.30
     Davidson diagonalization with overlap
     ethr =  1.72E-07,  avg # of iterations =  1.8

     negative rho (up, down):  3.636E-04 2.845E-04

     total cpu time spent up to now is    30582.5 secs

     total energy              =   -4032.15637973 Ry
     estimated scf accuracy    <       0.00031051 Ry

     total magnetization       =    11.65 Bohr mag/cell
     absolute magnetization    =    12.10 Bohr mag/cell

     iteration # 22     ecut=    90.00 Ry     beta= 0.30
     Davidson diagonalization with overlap
     ethr =  1.17E-07,  avg # of iterations =  2.0

     negative rho (up, down):  3.600E-04 2.757E-04

     total cpu time spent up to now is    31946.4 secs

     total energy              =   -4032.15663812 Ry
     estimated scf accuracy    <       0.00025174 Ry

     total magnetization       =    11.63 Bohr mag/cell
     absolute magnetization    =    12.06 Bohr mag/cell

     iteration # 23     ecut=    90.00 Ry     beta= 0.30
     Davidson diagonalization with overlap
     ethr =  9.46E-08,  avg # of iterations =  2.0

     negative rho (up, down):  3.577E-04 2.709E-04

     total cpu time spent up to now is    33372.6 secs

     total energy              =   -4032.15701642 Ry
     estimated scf accuracy    <       0.00020163 Ry

     total magnetization       =    11.61 Bohr mag/cell
     absolute magnetization    =    12.00 Bohr mag/cell

     iteration # 24     ecut=    90.00 Ry     beta= 0.30
     Davidson diagonalization with overlap
     ethr =  7.58E-08,  avg # of iterations =  1.9

     negative rho (up, down):  3.587E-04 2.713E-04

     total cpu time spent up to now is    34730.0 secs

     total energy              =   -4032.15715288 Ry
     estimated scf accuracy    <       0.00010486 Ry

     total magnetization       =    11.59 Bohr mag/cell
     absolute magnetization    =    11.97 Bohr mag/cell

     iteration # 25     ecut=    90.00 Ry     beta= 0.30
     Davidson diagonalization with overlap
     ethr =  3.94E-08,  avg # of iterations =  2.4

     negative rho (up, down):  3.574E-04 2.683E-04

     total cpu time spent up to now is    36148.3 secs

     total energy              =   -4032.15731378 Ry
     estimated scf accuracy    <       0.00012905 Ry

     total magnetization       =    11.58 Bohr mag/cell
     absolute magnetization    =    11.96 Bohr mag/cell

     iteration # 26     ecut=    90.00 Ry     beta= 0.30
     Davidson diagonalization with overlap
     ethr =  3.94E-08,  avg # of iterations =  2.0

     negative rho (up, down):  3.591E-04 2.703E-04

     total cpu time spent up to now is    37526.1 secs

     total energy              =   -4032.15737699 Ry
     estimated scf accuracy    <       0.00006795 Ry

     total magnetization       =    11.57 Bohr mag/cell
     absolute magnetization    =    11.95 Bohr mag/cell

     iteration # 27     ecut=    90.00 Ry     beta= 0.30
     Davidson diagonalization with overlap
     ethr =  2.55E-08,  avg # of iterations =  2.5

     negative rho (up, down):  3.590E-04 2.692E-04

     total cpu time spent up to now is    38954.6 secs

     total energy              =   -4032.15742743 Ry
     estimated scf accuracy    <       0.00017356 Ry

     total magnetization       =    11.55 Bohr mag/cell
     absolute magnetization    =    11.96 Bohr mag/cell

     iteration # 28     ecut=    90.00 Ry     beta= 0.30
     Davidson diagonalization with overlap
     ethr =  2.55E-08,  avg # of iterations =  2.7

     negative rho (up, down):  3.602E-04 2.705E-04

     total cpu time spent up to now is    40429.8 secs

     total energy              =   -4032.15756824 Ry
     estimated scf accuracy    <       0.00005339 Ry

     total magnetization       =    11.55 Bohr mag/cell
     absolute magnetization    =    11.99 Bohr mag/cell

     iteration # 29     ecut=    90.00 Ry     beta= 0.30
     Davidson diagonalization with overlap
     ethr =  2.01E-08,  avg # of iterations =  1.6

     negative rho (up, down):  3.623E-04 2.735E-04

     total cpu time spent up to now is    41752.2 secs

     total energy              =   -4032.15757671 Ry
     estimated scf accuracy    <       0.00003101 Ry

     total magnetization       =    11.54 Bohr mag/cell
     absolute magnetization    =    11.99 Bohr mag/cell

     iteration # 30     ecut=    90.00 Ry     beta= 0.30
     Davidson diagonalization with overlap
     ethr =  1.17E-08,  avg # of iterations =  2.0

     negative rho (up, down):  3.630E-04 2.745E-04

     total cpu time spent up to now is    43128.5 secs

     total energy              =   -4032.15758943 Ry
     estimated scf accuracy    <       0.00006345 Ry

     total magnetization       =    11.54 Bohr mag/cell
     absolute magnetization    =    12.01 Bohr mag/cell

     iteration # 31     ecut=    90.00 Ry     beta= 0.30
     Davidson diagonalization with overlap
     ethr =  1.17E-08,  avg # of iterations =  1.8

     negative rho (up, down):  3.637E-04 2.755E-04

     total cpu time spent up to now is    44473.7 secs

     total energy              =   -4032.15760106 Ry
     estimated scf accuracy    <       0.00000453 Ry

     total magnetization       =    11.54 Bohr mag/cell
     absolute magnetization    =    12.01 Bohr mag/cell

     iteration # 32     ecut=    90.00 Ry     beta= 0.30
     Davidson diagonalization with overlap
     ethr =  1.70E-09,  avg # of iterations =  3.2

     negative rho (up, down):  3.637E-04 2.754E-04

     total cpu time spent up to now is    45978.2 secs

     total energy              =   -4032.15760258 Ry
     estimated scf accuracy    <       0.00000283 Ry

     total magnetization       =    11.54 Bohr mag/cell
     absolute magnetization    =    12.02 Bohr mag/cell

     iteration # 33     ecut=    90.00 Ry     beta= 0.30
     Davidson diagonalization with overlap
     ethr =  1.06E-09,  avg # of iterations =  2.8

     negative rho (up, down):  3.637E-04 2.752E-04

     total cpu time spent up to now is    47497.9 secs

     total energy              =   -4032.15760806 Ry
     estimated scf accuracy    <       0.00000143 Ry

     total magnetization       =    11.53 Bohr mag/cell
     absolute magnetization    =    12.02 Bohr mag/cell

     iteration # 34     ecut=    90.00 Ry     beta= 0.30
     Davidson diagonalization with overlap
     ethr =  5.36E-10,  avg # of iterations =  2.0

     negative rho (up, down):  3.633E-04 2.745E-04

     total cpu time spent up to now is    48901.1 secs

     total energy              =   -4032.15760825 Ry
     estimated scf accuracy    <       0.00000082 Ry

     total magnetization       =    11.53 Bohr mag/cell
     absolute magnetization    =    12.03 Bohr mag/cell

     iteration # 35     ecut=    90.00 Ry     beta= 0.30
     Davidson diagonalization with overlap
     ethr =  3.08E-10,  avg # of iterations =  2.0

     negative rho (up, down):  3.630E-04 2.738E-04

     total cpu time spent up to now is    50307.3 secs

     total energy              =   -4032.15760904 Ry
     estimated scf accuracy    <       0.00000067 Ry

     total magnetization       =    11.53 Bohr mag/cell
     absolute magnetization    =    12.03 Bohr mag/cell

     iteration # 36     ecut=    90.00 Ry     beta= 0.30
     Davidson diagonalization with overlap
     ethr =  2.51E-10,  avg # of iterations =  2.0

     negative rho (up, down):  3.628E-04 2.736E-04

     total cpu time spent up to now is    51661.3 secs

     total energy              =   -4032.15760938 Ry
     estimated scf accuracy    <       0.00000022 Ry

     total magnetization       =    11.53 Bohr mag/cell
     absolute magnetization    =    12.03 Bohr mag/cell

     iteration # 37     ecut=    90.00 Ry     beta= 0.30
     Davidson diagonalization with overlap
     ethr =  8.23E-11,  avg # of iterations =  2.0

     negative rho (up, down):  3.628E-04 2.735E-04

     total cpu time spent up to now is    53032.6 secs

     total energy              =   -4032.15760942 Ry
     estimated scf accuracy    <       0.00000013 Ry

     total magnetization       =    11.53 Bohr mag/cell
     absolute magnetization    =    12.03 Bohr mag/cell

     iteration # 38     ecut=    90.00 Ry     beta= 0.30
     Davidson diagonalization with overlap
     ethr =  4.93E-11,  avg # of iterations =  2.1

     negative rho (up, down):  3.628E-04 2.734E-04

     total cpu time spent up to now is    54426.3 secs

     total energy              =   -4032.15760946 Ry
     estimated scf accuracy    <       0.00000024 Ry

     total magnetization       =    11.53 Bohr mag/cell
     absolute magnetization    =    12.03 Bohr mag/cell

     iteration # 39     ecut=    90.00 Ry     beta= 0.30
     Davidson diagonalization with overlap
     ethr =  4.93E-11,  avg # of iterations =  2.0

     negative rho (up, down):  3.628E-04 2.734E-04

     total cpu time spent up to now is    55782.1 secs

     total energy              =   -4032.15760952 Ry
     estimated scf accuracy    <       0.00000014 Ry

     total magnetization       =    11.53 Bohr mag/cell
     absolute magnetization    =    12.03 Bohr mag/cell

     iteration # 40     ecut=    90.00 Ry     beta= 0.30
     Davidson diagonalization with overlap
     ethr =  4.93E-11,  avg # of iterations =  2.0

     negative rho (up, down):  3.629E-04 2.735E-04

     total cpu time spent up to now is    57153.1 secs

     total energy              =   -4032.15760962 Ry
     estimated scf accuracy    <       0.00000014 Ry

     total magnetization       =    11.53 Bohr mag/cell
     absolute magnetization    =    12.03 Bohr mag/cell

     iteration # 41     ecut=    90.00 Ry     beta= 0.30
     Davidson diagonalization with overlap
     ethr =  4.93E-11,  avg # of iterations =  1.0

     negative rho (up, down):  3.629E-04 2.735E-04

     total cpu time spent up to now is    58413.7 secs

     total energy              =   -4032.15760964 Ry
     estimated scf accuracy    <       0.00000006 Ry

     total magnetization       =    11.53 Bohr mag/cell
     absolute magnetization    =    12.03 Bohr mag/cell

     iteration # 42     ecut=    90.00 Ry     beta= 0.30
     Davidson diagonalization with overlap
     ethr =  2.29E-11,  avg # of iterations =  1.6

     negative rho (up, down):  3.630E-04 2.736E-04

     total cpu time spent up to now is    59728.7 secs

     total energy              =   -4032.15760967 Ry
     estimated scf accuracy    <       0.00000002 Ry

     total magnetization       =    11.53 Bohr mag/cell
     absolute magnetization    =    12.03 Bohr mag/cell

     iteration # 43     ecut=    90.00 Ry     beta= 0.30
     Davidson diagonalization with overlap
     ethr =  9.02E-12,  avg # of iterations =  2.0

     negative rho (up, down):  3.630E-04 2.736E-04

     total cpu time spent up to now is    61090.7 secs

     total energy              =   -4032.15760968 Ry
     estimated scf accuracy    <       0.00000002 Ry

     total magnetization       =    11.53 Bohr mag/cell
     absolute magnetization    =    12.03 Bohr mag/cell

     iteration # 44     ecut=    90.00 Ry     beta= 0.30
     Davidson diagonalization with overlap
     ethr =  5.65E-12,  avg # of iterations =  1.5

     negative rho (up, down):  3.630E-04 2.737E-04

     total cpu time spent up to now is    62392.5 secs

     total energy              =   -4032.15760969 Ry
     estimated scf accuracy    <       0.00000001 Ry

     total magnetization       =    11.53 Bohr mag/cell
     absolute magnetization    =    12.03 Bohr mag/cell

     iteration # 45     ecut=    90.00 Ry     beta= 0.30
     Davidson diagonalization with overlap
     ethr =  4.82E-12,  avg # of iterations =  2.4

     negative rho (up, down):  3.630E-04 2.736E-04
 
     Magnetic moment per site  (integrated on atomic sphere of radius R)
     atom   1 (R=0.180)  charge=  8.0826  magn=  0.0625
     atom   2 (R=0.180)  charge=  8.1141  magn=  0.4860
     atom   3 (R=0.180)  charge=  8.0994  magn=  0.5799
     atom   4 (R=0.180)  charge=  8.0926  magn=  0.5928
     atom   5 (R=0.180)  charge=  8.0898  magn=  0.6162
     atom   6 (R=0.180)  charge=  8.0905  magn=  0.6115
     atom   7 (R=0.180)  charge=  8.0901  magn=  0.6163
     atom   8 (R=0.180)  charge=  8.0903  magn=  0.6179
     atom   9 (R=0.180)  charge=  8.0915  magn=  0.6073
     atom  10 (R=0.180)  charge=  8.0898  magn=  0.6173
     atom  11 (R=0.180)  charge=  8.0917  magn=  0.5915
     atom  12 (R=0.180)  charge=  8.0946  magn=  0.5924
     atom  13 (R=0.180)  charge=  8.1749  magn= -0.0637
     atom  14 (R=0.180)  charge=  8.0950  magn=  0.5717
     atom  15 (R=0.180)  charge=  8.2432  magn=  0.0119
     atom  16 (R=0.180)  charge=  8.2330  magn=  0.0195
     atom  17 (R=0.180)  charge=  4.8456  magn=  0.1480
     atom  18 (R=0.180)  charge=  4.8076  magn=  0.2421
     atom  19 (R=0.180)  charge=  4.8739  magn=  0.2142
     atom  20 (R=0.180)  charge=  4.8717  magn=  0.2577
     atom  21 (R=0.180)  charge=  4.8908  magn=  0.2831
     atom  22 (R=0.180)  charge=  4.8813  magn=  0.2885
     atom  23 (R=0.180)  charge=  4.8872  magn=  0.3007
     atom  24 (R=0.180)  charge=  4.8871  magn=  0.3061
     atom  25 (R=0.180)  charge=  4.8881  magn=  0.2878
     atom  26 (R=0.180)  charge=  4.8862  magn=  0.3011
     atom  27 (R=0.180)  charge=  4.8714  magn=  0.3060
     atom  28 (R=0.180)  charge=  4.8857  magn=  0.2957
     atom  29 (R=0.180)  charge=  4.8758  magn=  0.1172
     atom  30 (R=0.180)  charge=  4.8804  magn=  0.2179
     atom  31 (R=0.180)  charge=  4.8352  magn=  0.0822

     total cpu time spent up to now is    63847.5 secs

     End of self-consistent calculation

     =================== HUBBARD OCCUPATIONS ===================
     ------------------------ ATOM    1 ------------------------
     Tr[ns(  1)] (up, down, total) =   4.67202  4.61807  9.29010
     Atomic magnetic moment for atom   1 =   0.05395
     SPIN  1
     eigenvalues:
       0.703  0.974  0.997  0.999  0.999
     eigenvectors (columns):
      -0.060 -0.517 -0.843  0.131  0.050
       0.034 -0.010  0.150  0.666  0.730
      -0.996 -0.009  0.079  0.005  0.026
      -0.047  0.855 -0.503  0.114  0.013
       0.006  0.033 -0.092 -0.726  0.681
     occupation matrix ns (before diag.):
       0.990  0.001 -0.018  0.009  0.000
       0.001  0.998  0.010  0.001  0.000
      -0.018  0.010  0.705 -0.014  0.002
       0.009  0.001 -0.014  0.980 -0.001
       0.000  0.000  0.002 -0.001  0.999
     SPIN  2
     eigenvalues:
       0.668  0.973  0.988  0.993  0.995
     eigenvectors (columns):
       0.003  0.499  0.316  0.434  0.680
       0.033  0.048  0.626 -0.761  0.160
      -0.999  0.004  0.050 -0.005 -0.019
      -0.001 -0.865  0.220  0.210  0.399
      -0.042 -0.004 -0.677 -0.433  0.594
     occupation matrix ns (before diag.):
       0.989 -0.001  0.001  0.009  0.002
      -0.001  0.991  0.010  0.000  0.003
       0.001  0.010  0.669 -0.000 -0.014
       0.009  0.000 -0.000  0.978  0.001
       0.002  0.003 -0.014  0.001  0.991
     ------------------------ ATOM    2 ------------------------
     Tr[ns(  2)] (up, down, total) =   4.92320  4.44353  9.36674
     Atomic magnetic moment for atom   2 =   0.47967
     SPIN  1
     eigenvalues:
       0.949  0.988  0.993  0.996  0.998
     eigenvectors (columns):
       0.621  0.185 -0.759 -0.039  0.044
      -0.090  0.683  0.055 -0.099 -0.716
       0.054 -0.533 -0.073 -0.729 -0.420
      -0.208 -0.438 -0.338  0.629 -0.505
       0.748 -0.154  0.548  0.247 -0.233
     occupation matrix ns (before diag.):
       0.976  0.002 -0.001  0.006 -0.021
       0.002  0.993  0.004  0.002  0.004
      -0.001  0.004  0.994 -0.001 -0.002
       0.006  0.002 -0.001  0.993  0.008
      -0.021  0.004 -0.002  0.008  0.968
     SPIN  2
     eigenvalues:
       0.502  0.970  0.985  0.990  0.996
     eigenvectors (columns):
       0.205  0.725  0.232 -0.614  0.041
       0.089 -0.119 -0.702 -0.336  0.610
      -0.017  0.024  0.545  0.281  0.789
       0.130 -0.675  0.394 -0.608 -0.032
       0.966 -0.051 -0.028  0.248 -0.047
     occupation matrix ns (before diag.):
       0.959 -0.006  0.001 -0.004 -0.096
      -0.006  0.986  0.006 -0.006 -0.042
       0.001  0.006  0.992  0.000  0.008
      -0.004 -0.006  0.000  0.972 -0.062
      -0.096 -0.042  0.008 -0.062  0.535
     ------------------------ ATOM    3 ------------------------
     Tr[ns(  3)] (up, down, total) =   4.94773  4.38856  9.33629
     Atomic magnetic moment for atom   3 =   0.55918
     SPIN  1
     eigenvalues:
       0.972  0.980  0.998  0.999  0.999
     eigenvectors (columns):
       0.645  0.070 -0.199 -0.732  0.056
       0.026  0.051  0.099  0.077  0.990
      -0.146  0.988 -0.020 -0.031 -0.042
      -0.749 -0.129 -0.126 -0.631  0.089
       0.029  0.013  0.966 -0.242 -0.079
     occupation matrix ns (before diag.):
       0.987 -0.000  0.001  0.013 -0.001
      -0.000  0.999 -0.001  0.001 -0.000
       0.001 -0.001  0.980 -0.000 -0.000
       0.013  0.001 -0.000  0.983  0.001
      -0.001 -0.000 -0.000  0.001  0.998
     SPIN  2
     eigenvalues:
       0.438  0.967  0.993  0.995  0.996
     eigenvectors (columns):
      -0.040  0.624  0.084 -0.152  0.761
       0.022  0.012  0.949  0.311 -0.051
       0.999  0.014 -0.014 -0.022  0.038
      -0.013 -0.780  0.062 -0.057  0.620
       0.009  0.050 -0.298  0.936  0.179
     occupation matrix ns (before diag.):
       0.984  0.000  0.022  0.014 -0.001
       0.000  0.993 -0.012  0.000  0.000
       0.022 -0.012  0.439  0.007 -0.005
       0.014  0.000  0.007  0.978  0.001
      -0.001  0.000 -0.005  0.001  0.995
     ------------------------ ATOM    4 ------------------------
     Tr[ns(  4)] (up, down, total) =   4.94632  4.37288  9.31921
     Atomic magnetic moment for atom   4 =   0.57344
     SPIN  1
     eigenvalues:
       0.972  0.982  0.996  0.997  0.999
     eigenvectors (columns):
      -0.987 -0.021 -0.005  0.140  0.073
      -0.034 -0.145 -0.575 -0.576  0.561
      -0.022 -0.085  0.817 -0.369  0.435
       0.148  0.111 -0.046  0.690  0.699
      -0.045  0.979 -0.010 -0.192  0.043
     occupation matrix ns (before diag.):
       0.973 -0.001 -0.001  0.004 -0.001
      -0.001  0.997  0.001  0.001  0.002
      -0.001  0.001  0.996  0.001  0.001
       0.004  0.001  0.001  0.997 -0.001
      -0.001  0.002  0.001 -0.001  0.983
     SPIN  2
     eigenvalues:
       0.425  0.964  0.993  0.994  0.997
     eigenvectors (columns):
      -0.003 -0.988  0.076  0.090 -0.102
       0.007 -0.024 -0.922  0.081 -0.378
       0.002 -0.037  0.080 -0.917 -0.389
       0.095  0.148  0.370  0.379 -0.830
       0.995 -0.017 -0.029 -0.034  0.083
     occupation matrix ns (before diag.):
       0.965 -0.001 -0.001  0.005  0.001
      -0.001  0.994  0.000  0.001 -0.004
      -0.001  0.000  0.994  0.001 -0.002
       0.005  0.001  0.001  0.990 -0.054
       0.001 -0.004 -0.002 -0.054  0.430
     ------------------------ ATOM    5 ------------------------
     Tr[ns(  5)] (up, down, total) =   4.95985  4.36498  9.32483
     Atomic magnetic moment for atom   5 =   0.59486
     SPIN  1
     eigenvalues:
       0.973  0.991  0.999  0.999  0.999
     eigenvectors (columns):
[...]
    -4.2041  -4.1858  -4.1456  -4.1176  -4.0739  -3.9882  -3.9583  -3.9330
    -3.8936  -3.8465  -3.8246  -3.7625  -3.7070  -3.6443  -3.6032  -3.5090
    -3.4765  -3.4091  -3.3690  -3.3599  -3.3329  -3.2953  -3.2689  -3.1973
    -3.1535  -3.1251  -3.0991  -3.0676  -3.0280  -3.0022  -2.9519  -2.8672
    -2.8421  -2.7991  -2.7210  -2.6640  -2.6145  -2.5959  -2.5468  -2.5153
    -2.4632  -2.4493  -2.4171  -2.3490  -2.3077  -2.2447  -2.2068  -2.1469
    -2.1033  -1.9942  -1.9609  -1.9268  -1.8515  -1.8158  -1.7233  -1.6215
    -1.4647  -1.3683  -1.3346  -1.0717  -0.7753  -0.2455  -0.1582   0.2359
     0.5612   0.7358   0.8873   0.9914   1.0551   1.1811   1.3588   1.4933
     1.6818   1.8040   1.8710   1.8980   2.0195   2.7969   3.1805   3.7946
     4.1983   4.4592   4.5500   4.8091   4.8910   5.0635   5.2175   5.3481
     5.6179   5.7989   5.8489   5.9699   6.0907   6.2865   6.3726   6.7093

          k =-0.2062-0.1127 0.2667 ( 82174 PWs)   bands (ev):

   -18.4220 -18.3728 -18.2517 -18.0556 -17.8455 -17.7765 -17.6864 -17.5420
   -17.4374 -17.3943 -17.2923 -17.2113 -17.1022 -17.0473 -16.3225  -7.1806
    -6.9559  -6.6907  -6.4452  -6.4170  -6.3905  -6.1979  -6.1222  -6.0936
    -5.9851  -5.8479  -5.7454  -5.6674  -5.6084  -5.5596  -5.5004  -5.4684
    -5.3901  -5.3220  -5.3075  -5.2732  -5.2064  -5.1488  -5.0748  -5.0534
    -4.9929  -4.9673  -4.8978  -4.8840  -4.8641  -4.7949  -4.7556  -4.6275
    -4.5976  -4.5757  -4.5289  -4.4880  -4.4719  -4.4409  -4.4247  -4.3987
    -4.3811  -4.3686  -4.3346  -4.3247  -4.3071  -4.2774  -4.2403  -4.2216
    -4.1965  -4.1759  -4.1418  -4.0892  -4.0687  -4.0066  -3.9884  -3.9021
    -3.8545  -3.8331  -3.7968  -3.7286  -3.7138  -3.6949  -3.6556  -3.6107
    -3.5950  -3.5559  -3.4697  -3.4414  -3.4049  -3.3388  -3.2990  -3.2446
    -3.1895  -3.1602  -3.0932  -3.0442  -3.0100  -2.9868  -2.9344  -2.9034
    -2.8653  -2.8072  -2.7987  -2.7368  -2.7051  -2.6687  -2.6393  -2.5953
    -2.5644  -2.5202  -2.4837  -2.4583  -2.4251  -2.3637  -2.2868  -2.2209
    -2.1076  -2.0533  -1.9767  -1.9152  -1.8062  -1.7518  -1.6778  -1.5677
    -1.5221  -1.4587  -1.2025  -1.1486  -0.8000  -0.3816  -0.2224   0.5502
     0.6600   0.8644   0.9066   1.0127   1.1905   1.2798   1.4185   1.4878
     1.6932   1.7953   1.8578   1.9682   2.0212   3.0036   4.0805   4.3385
     4.7090   4.8499   4.9952   5.0604   5.1405   5.2490   5.6185   5.7392
     5.8878   5.9581   6.1174   6.1540   6.3447   6.3989   6.5945   6.7663

          k =-0.1715-0.2255 0.3030 ( 82223 PWs)   bands (ev):

   -18.3050 -18.2812 -18.1580 -17.9943 -17.8604 -17.8288 -17.8076 -17.6989
   -17.5771 -17.4346 -17.2789 -17.1677 -17.0598 -17.0357 -16.3369  -6.8789
    -6.6743  -6.4885  -6.4621  -6.4322  -6.2975  -6.2684  -6.2221  -6.1696
    -6.1093  -5.9544  -5.8857  -5.7296  -5.6258  -5.5777  -5.5432  -5.4533
    -5.4056  -5.3451  -5.3169  -5.2610  -5.2146  -5.1202  -5.0482  -4.9676
    -4.9443  -4.9106  -4.8886  -4.8741  -4.8488  -4.7839  -4.7561  -4.6669
    -4.5905  -4.5571  -4.5421  -4.4928  -4.4537  -4.4238  -4.3988  -4.3836
    -4.3718  -4.3448  -4.3363  -4.3068  -4.2821  -4.2623  -4.2390  -4.2068
    -4.1786  -4.1471  -4.1137  -4.0819  -4.0605  -4.0259  -4.0002  -3.9399
    -3.9042  -3.8580  -3.8224  -3.7870  -3.7634  -3.7277  -3.7011  -3.6719
    -3.6296  -3.5606  -3.5338  -3.4895  -3.4486  -3.4275  -3.3314  -3.2849
    -3.1862  -3.1204  -3.0943  -3.0007  -2.9887  -2.9579  -2.9189  -2.8802
    -2.8330  -2.8115  -2.7883  -2.7696  -2.7407  -2.6943  -2.6173  -2.5843
    -2.5637  -2.5055  -2.4804  -2.4384  -2.3804  -2.3419  -2.2849  -2.1776
    -2.1147  -2.0270  -1.9650  -1.8538  -1.7969  -1.7453  -1.6930  -1.6108
    -1.4986  -1.4288  -1.2741  -1.0633  -0.8071  -0.5069  -0.2236   0.4262
     0.5594   0.7126   0.8681   1.0187   1.1312   1.1878   1.4047   1.5120
     1.6713   1.7970   1.8922   2.0487   2.1926   2.8316   4.4427   4.5886
     4.6870   4.7690   4.8579   5.0555   5.1183   5.2198   5.6841   5.8163
     5.8637   5.9973   6.1023   6.1814   6.2785   6.6076   6.6703   7.0218

          k =-0.1367-0.3382 0.3394 ( 82264 PWs)   bands (ev):

   -18.2504 -18.1756 -18.0283 -18.0112 -17.9213 -17.9050 -17.8425 -17.7956
   -17.6587 -17.4542 -17.2655 -17.1417 -17.0367 -16.9978 -16.3702  -6.5550
    -6.5257  -6.4800  -6.4505  -6.3947  -6.3269  -6.3063  -6.2398  -6.2130
    -6.1324  -6.0299  -5.9811  -5.9291  -5.7027  -5.5988  -5.5479  -5.4207
    -5.3968  -5.3519  -5.2952  -5.2237  -5.1836  -5.1071  -5.0268  -4.9840
    -4.9571  -4.9317  -4.8840  -4.8594  -4.8314  -4.8047  -4.7145  -4.6007
    -4.5719  -4.5363  -4.5095  -4.4975  -4.4547  -4.4420  -4.4208  -4.4038
    -4.3821  -4.3632  -4.3336  -4.2932  -4.2844  -4.2688  -4.2470  -4.2092
    -4.1920  -4.1446  -4.1166  -4.0980  -4.0457  -4.0355  -3.9999  -3.9472
    -3.9235  -3.8834  -3.8296  -3.8128  -3.7883  -3.7541  -3.6988  -3.6644
    -3.5984  -3.5666  -3.5351  -3.4768  -3.4444  -3.4138  -3.3096  -3.2049
    -3.1583  -3.1128  -3.1008  -3.0469  -3.0160  -2.9568  -2.9249  -2.8927
    -2.8567  -2.8298  -2.7914  -2.7707  -2.7281  -2.6927  -2.6650  -2.6271
    -2.5764  -2.5230  -2.4657  -2.3999  -2.3470  -2.3043  -2.2340  -2.2044
    -2.1252  -2.0523  -1.8847  -1.8642  -1.7339  -1.6997  -1.6659  -1.6234
    -1.5955  -1.4893  -1.4013  -0.8406  -0.7334  -0.5598  -0.1708   0.3638
     0.5506   0.7469   0.8202   0.8845   1.1154   1.1423   1.3290   1.4187
     1.6842   1.8453   1.9237   2.1257   2.2912   2.8351   4.0249   4.5492
     4.6969   4.8632   5.0035   5.1779   5.2209   5.3284   5.5241   5.7395
     5.9314   6.0006   6.0927   6.2058   6.4373   6.8249   6.9064   7.0976

          k =-0.3105 0.2255 0.1576 ( 82223 PWs)   bands (ev):

   -18.3069 -18.2748 -18.1546 -18.0001 -17.8852 -17.8407 -17.7807 -17.7288
   -17.6159 -17.4235 -17.2567 -17.1485 -17.0464 -16.9666 -16.3916  -6.8725
    -6.6644  -6.4820  -6.4664  -6.4383  -6.3177  -6.2824  -6.2355  -6.1849
    -6.1151  -6.0447  -5.9356  -5.8915  -5.6397  -5.5995  -5.4989  -5.4096
    -5.3715  -5.3093  -5.2570  -5.1798  -5.1679  -5.0843  -5.0541  -5.0074
    -4.9412  -4.9073  -4.8890  -4.8486  -4.7917  -4.7424  -4.7316  -4.6867
    -4.6551  -4.5595  -4.5286  -4.4960  -4.4705  -4.4439  -4.4282  -4.3859
    -4.3657  -4.3529  -4.3298  -4.3149  -4.2977  -4.2838  -4.2241  -4.2057
    -4.2009  -4.1725  -4.1438  -4.1146  -4.0967  -4.0349  -4.0141  -3.9582
    -3.8993  -3.8561  -3.8237  -3.8051  -3.7777  -3.7482  -3.6819  -3.6559
    -3.5841  -3.5326  -3.5057  -3.4747  -3.4183  -3.3848  -3.2987  -3.2492
    -3.1554  -3.0961  -3.0606  -3.0381  -3.0029  -2.9609  -2.9195  -2.8775
    -2.8530  -2.8075  -2.8013  -2.7385  -2.7227  -2.6868  -2.6592  -2.5783
    -2.5456  -2.5010  -2.4529  -2.3967  -2.3761  -2.3174  -2.2669  -2.1889
    -2.1064  -2.0621  -1.9570  -1.8858  -1.8081  -1.7480  -1.7275  -1.6647
    -1.5482  -1.5122  -1.4069  -0.7693  -0.6947  -0.4231  -0.1207   0.4439
     0.6126   0.7276   0.8560   0.9250   1.0678   1.2129   1.3453   1.4926
     1.7154   1.7930   1.8693   2.0646   2.1998   3.0591   3.8814   4.3523
     4.6617   4.7274   4.8577   5.0308   5.1735   5.4967   5.6512   5.8139
     5.9347   5.9974   6.0736   6.1895   6.2604   6.7003   6.7174   7.0633

          k =-0.2757 0.1127 0.1939 ( 82174 PWs)   bands (ev):

   -18.4181 -18.3724 -18.2545 -18.0654 -17.8624 -17.7358 -17.6979 -17.6274
   -17.4677 -17.3652 -17.2597 -17.1888 -17.0864 -16.9790 -16.3754  -7.1781
    -6.9523  -6.6949  -6.4607  -6.4277  -6.4000  -6.2144  -6.1642  -6.1421
    -5.9521  -5.9092  -5.8306  -5.7379  -5.5521  -5.5406  -5.5066  -5.4124
    -5.3833  -5.3441  -5.2919  -5.2382  -5.2123  -5.1196  -5.0862  -5.0361
    -4.9807  -4.9441  -4.8631  -4.8504  -4.8139  -4.7703  -4.6825  -4.6719
    -4.6376  -4.5701  -4.5350  -4.5021  -4.4883  -4.4649  -4.4396  -4.4125
    -4.3983  -4.3653  -4.3556  -4.3265  -4.3075  -4.2754  -4.2618  -4.2452
    -4.2158  -4.1782  -4.1530  -4.0989  -4.0834  -4.0701  -3.9792  -3.9266
    -3.8890  -3.8102  -3.7841  -3.7463  -3.6799  -3.6662  -3.6538  -3.6170
    -3.5544  -3.5207  -3.4456  -3.3927  -3.3839  -3.3158  -3.3073  -3.2324
    -3.1629  -3.1158  -3.0743  -3.0372  -3.0070  -2.9752  -2.9413  -2.8899
    -2.8742  -2.8091  -2.7766  -2.7575  -2.7141  -2.6528  -2.6407  -2.6023
    -2.5764  -2.5290  -2.4975  -2.4586  -2.4364  -2.3343  -2.3131  -2.1887
    -2.1507  -2.0363  -2.0148  -1.9009  -1.8347  -1.7413  -1.6928  -1.6308
    -1.5817  -1.4634  -1.3108  -0.7692  -0.7099  -0.4016  -0.1019   0.6022
     0.6435   0.7736   0.9583   0.9966   1.1068   1.2546   1.4323   1.4905
     1.6761   1.7960   1.8924   1.9355   2.0424   3.2121   3.9859   4.2365
     4.3946   4.7077   4.9293   5.0262   5.0653   5.3666   5.5337   5.8123
     5.8969   5.9862   6.0443   6.1226   6.3449   6.4360   6.6040   6.8314

          k =-0.2410-0.0000 0.2303 ( 82209 PWs)   bands (ev):

   -18.4668 -18.4088 -18.2873 -18.0848 -17.8562 -17.7309 -17.6438 -17.5278
   -17.4001 -17.3085 -17.2684 -17.2551 -17.1257 -17.0211 -16.3400  -7.2979
    -7.0662  -6.7851  -6.4897  -6.3995  -6.3896  -6.1901  -6.0935  -6.0857
    -5.8931  -5.7768  -5.7325  -5.6803  -5.5878  -5.5130  -5.4591  -5.4159
    -5.3926  -5.3745  -5.3498  -5.2939  -5.2463  -5.2135  -5.0981  -5.0584
    -5.0198  -4.9652  -4.8976  -4.8738  -4.7999  -4.7714  -4.7393  -4.6827
    -4.6391  -4.5870  -4.5386  -4.4903  -4.4758  -4.4674  -4.4446  -4.4116
    -4.4021  -4.3623  -4.3436  -4.3285  -4.3120  -4.2858  -4.2592  -4.2440
    -4.2060  -4.1768  -4.1204  -4.1044  -4.0757  -4.0047  -3.9876  -3.9066
    -3.8543  -3.8227  -3.7727  -3.7030  -3.6740  -3.6370  -3.5948  -3.5620
    -3.5408  -3.4811  -3.4416  -3.3969  -3.3666  -3.3284  -3.2579  -3.2398
    -3.1440  -3.1173  -3.0765  -3.0515  -3.0133  -2.9736  -2.9352  -2.9015
    -2.8719  -2.8509  -2.8267  -2.7853  -2.7400  -2.7219  -2.6863  -2.6510
    -2.5796  -2.5231  -2.5002  -2.4503  -2.4139  -2.3814  -2.3076  -2.2214
    -2.1692  -2.0309  -1.9780  -1.9095  -1.8331  -1.7219  -1.6533  -1.6150
    -1.5333  -1.4074  -1.2359  -1.0148  -0.7402  -0.3606  -0.1537   0.6352
     0.6748   0.9064   0.9958   1.0932   1.1621   1.3175   1.3523   1.3998
     1.6255   1.7524   1.8733   1.9900   2.0258   3.1718   3.8458   4.1729
     4.6220   4.8493   4.9501   5.0555   5.1617   5.3155   5.5392   5.7548
     5.8636   5.9826   6.0437   6.1150   6.3094   6.4334   6.6160   6.7177

          k = 0.3094 0.1691-0.4000 ( 82202 PWs)   bands (ev):

   -18.2636 -18.2304 -18.1246 -18.0591 -17.9388 -17.8512 -17.8075 -17.5665
   -17.4652 -17.4109 -17.3014 -17.2091 -17.0959 -17.0656 -16.3251  -6.7889
    -6.6854  -6.5706  -6.5278  -6.4655  -6.3853  -6.3053  -6.2749  -6.2359
    -6.2279  -5.9309  -5.8885  -5.6623  -5.6555  -5.5417  -5.5036  -5.4736
    -5.4342  -5.3452  -5.2711  -5.2428  -5.1761  -5.1645  -5.1295  -5.0679
    -5.0269  -5.0134  -4.9503  -4.9124  -4.8956  -4.8416  -4.7743  -4.6100
    -4.6025  -4.5261  -4.5009  -4.4827  -4.4465  -4.4167  -4.3972  -4.3630
    -4.3412  -4.3223  -4.3148  -4.2604  -4.2552  -4.2188  -4.2013  -4.1768
    -4.1732  -4.1672  -4.1150  -4.1023  -4.0722  -3.9945  -3.9729  -3.8980
    -3.8676  -3.8341  -3.8163  -3.7928  -3.7622  -3.7350  -3.7107  -3.6915
    -3.6329  -3.5714  -3.5194  -3.4851  -3.3963  -3.3694  -3.3182  -3.2805
    -3.1961  -3.1346  -3.0988  -3.0430  -3.0088  -3.0035  -2.9424  -2.9255
    -2.8804  -2.8557  -2.8352  -2.7774  -2.7046  -2.6861  -2.6586  -2.5991
    -2.5358  -2.5055  -2.4345  -2.4153  -2.3706  -2.3355  -2.2729  -2.1773
    -2.1298  -2.0582  -2.0170  -1.9698  -1.9569  -1.8178  -1.7625  -1.5251
    -1.5035  -1.3737  -1.1528  -1.1451  -0.8525  -0.5061  -0.2311   0.5063
     0.7652   0.9410   0.9627   1.0779   1.1185   1.3446   1.4181   1.6197
     1.6596   1.7338   1.9048   1.9568   2.0061   2.8371   4.4681   4.6481
     4.9978   5.0813   5.1307   5.1583   5.2860   5.3293   5.8329   5.9798
     6.0176   6.0575   6.2525   6.3899   6.5208   6.7739   6.9185   7.3261

          k = 0.3441 0.0564-0.3636 ( 82160 PWs)   bands (ev):

   -18.2702 -18.2316 -18.1304 -18.0511 -17.9381 -17.8303 -17.7826 -17.6317
   -17.5195 -17.3825 -17.2697 -17.1976 -17.0913 -17.0447 -16.3418  -6.7837
    -6.6975  -6.5851  -6.5251  -6.4989  -6.4558  -6.3185  -6.2560  -6.2216
    -6.1044  -5.9509  -5.8949  -5.6629  -5.6462  -5.5560  -5.5092  -5.4819
    -5.3750  -5.3383  -5.3026  -5.2551  -5.2049  -5.1565  -5.1194  -5.1010
    -5.0414  -5.0011  -4.9598  -4.9184  -4.8894  -4.7877  -4.7175  -4.6844
    -4.6016  -4.5517  -4.5263  -4.5132  -4.4620  -4.4287  -4.4070  -4.3780
    -4.3615  -4.3245  -4.3002  -4.2787  -4.2574  -4.2178  -4.2089  -4.1788
    -4.1696  -4.1473  -4.1178  -4.0796  -4.0454  -3.9942  -3.9660  -3.9192
    -3.8622  -3.8215  -3.7923  -3.7610  -3.7407  -3.7063  -3.6766  -3.6728
    -3.6104  -3.5597  -3.5181  -3.4848  -3.4445  -3.3827  -3.3272  -3.2757
    -3.1890  -3.1491  -3.0756  -3.0468  -3.0003  -2.9740  -2.9481  -2.9139
    -2.8897  -2.8530  -2.7963  -2.7722  -2.7500  -2.7066  -2.6672  -2.6191
    -2.5470  -2.5004  -2.4557  -2.4155  -2.4035  -2.3240  -2.2728  -2.1822
    -2.1302  -2.0870  -2.0364  -1.9424  -1.9080  -1.8290  -1.7046  -1.5901
    -1.4604  -1.4324  -1.2057  -1.0061  -0.7952  -0.5389  -0.1878   0.5028
     0.7641   0.9333   1.0020   1.0465   1.1901   1.2738   1.3773   1.4949
     1.6004   1.8326   1.9034   2.0069   2.0867   2.8444   4.4295   4.6998
     4.7988   4.8966   4.9935   5.1673   5.3633   5.5154   5.8436   5.9460
     6.0628   6.1139   6.2460   6.4325   6.4615   6.8407   6.9521   7.3062

          k = 0.3789-0.0564-0.3273 ( 82160 PWs)   bands (ev):

   -18.2795 -18.2235 -18.1267 -18.0482 -17.9401 -17.8302 -17.7779 -17.6962
   -17.5252 -17.3684 -17.2533 -17.1841 -17.0815 -16.9971 -16.3789  -6.7800
    -6.6927  -6.5882  -6.5331  -6.4927  -6.4447  -6.3486  -6.2536  -6.2111
    -6.1568  -5.9991  -5.9264  -5.8474  -5.5661  -5.5239  -5.4993  -5.4552
    -5.3660  -5.3263  -5.2727  -5.2262  -5.1984  -5.1747  -5.1100  -5.0706
    -5.0197  -4.9691  -4.9295  -4.8808  -4.8335  -4.7952  -4.7219  -4.6786
    -4.6470  -4.5851  -4.5384  -4.5048  -4.4627  -4.4518  -4.4222  -4.3891
    -4.3696  -4.3355  -4.3121  -4.2751  -4.2601  -4.2215  -4.2101  -4.1982
    -4.1661  -4.1463  -4.1117  -4.0759  -4.0556  -4.0334  -3.9742  -3.9462
    -3.9027  -3.8445  -3.8079  -3.7651  -3.7240  -3.6908  -3.6594  -3.6425
    -3.5972  -3.5717  -3.5006  -3.4619  -3.4196  -3.3819  -3.3504  -3.2576
    -3.2083  -3.1248  -3.0511  -3.0109  -2.9790  -2.9572  -2.9235  -2.9139
    -2.8574  -2.8406  -2.8238  -2.7686  -2.7369  -2.7093  -2.6431  -2.6083
    -2.5748  -2.5122  -2.4645  -2.4362  -2.3684  -2.3543  -2.2675  -2.2308
    -2.1244  -2.0770  -2.0489  -1.9412  -1.9039  -1.8354  -1.7068  -1.6322
    -1.5421  -1.4432  -1.3045  -0.6941  -0.6818  -0.5739  -0.1311   0.5678
     0.8164   0.8811   1.0138   1.0670   1.1705   1.2151   1.3415   1.4819
     1.6217   1.8047   1.9360   1.9946   2.0952   2.8189   4.2138   4.5836
     4.7468   4.9035   5.0188   5.1715   5.3451   5.5983   5.6877   5.9547
     6.0414   6.1279   6.2613   6.3911   6.5540   6.9332   7.0787   7.2234

          k = 0.2051 0.5073-0.5091 ( 82202 PWs)   bands (ev):

   -18.2826 -18.2131 -18.1165 -18.0538 -17.9411 -17.8482 -17.8249 -17.6835
   -17.4811 -17.3760 -17.2624 -17.1796 -17.0765 -16.9705 -16.3998  -6.7821
    -6.6762  -6.5821  -6.5209  -6.4497  -6.3968  -6.3179  -6.2705  -6.2686
    -6.2114  -6.1769  -5.9335  -5.8729  -5.6254  -5.5184  -5.5037  -5.4232
    -5.3492  -5.2561  -5.2490  -5.1920  -5.1673  -5.1334  -5.1086  -5.0574
    -5.0253  -4.9728  -4.9373  -4.8515  -4.8209  -4.7393  -4.6934  -4.6605
    -4.6508  -4.5883  -4.5749  -4.4762  -4.4584  -4.4364  -4.4317  -4.3929
    -4.3810  -4.3375  -4.3341  -4.2700  -4.2610  -4.2399  -4.2001  -4.1835
    -4.1779  -4.1524  -4.1400  -4.1127  -4.0868  -4.0135  -3.9879  -3.9601
    -3.9156  -3.8517  -3.8401  -3.8198  -3.7822  -3.7083  -3.6830  -3.6631
    -3.6089  -3.5342  -3.4993  -3.4521  -3.4202  -3.3740  -3.2945  -3.2079
    -3.1570  -3.1113  -3.0726  -3.0311  -3.0063  -2.9523  -2.9220  -2.8806
    -2.8565  -2.8302  -2.8090  -2.7629  -2.6953  -2.6696  -2.6209  -2.5959
    -2.5764  -2.5071  -2.4783  -2.4276  -2.4240  -2.3261  -2.2877  -2.1691
    -2.1174  -2.0613  -2.0504  -2.0272  -1.9614  -1.8472  -1.7545  -1.7028
    -1.4694  -1.4619  -1.3290  -0.6473  -0.5938  -0.5040  -0.1213   0.6942
     0.8187   0.8752   0.9566   1.0215   1.1303   1.2497   1.3482   1.6100
     1.6936   1.7306   1.8713   1.9781   2.0293   2.7765   4.1428   4.4813
     4.6880   5.0798   5.1242   5.1553   5.2294   5.5082   5.6167   5.9792
     6.0363   6.1429   6.2625   6.3841   6.6333   6.9610   7.0349   7.2089

     the Fermi energy is     0.1922 ev

!    total energy              =   -4032.15760971 Ry
     total all-electron energy =    -55214.937253 Ry
     estimated scf accuracy    <          6.5E-09 Ry
     smearing contrib. (-TS)   =       0.00465517 Ry
     internal energy E=F+TS    =   -4032.16226488 Ry

     The total energy is F=E-TS. E is the sum of the following terms:
     one-electron contribution =  -47349.93819944 Ry
     hartree contribution      =   23906.84441420 Ry
     xc contribution           =    -824.54945104 Ry
     ewald contribution        =   21814.85750067 Ry
     Hubbard energy            =       0.97878766 Ry
     one-center paw contrib.   =   -1580.35531693 Ry

     total magnetization       =    11.53 Bohr mag/cell
     absolute magnetization    =    12.03 Bohr mag/cell

     convergence has been achieved in  45 iterations

     Writing all to output data dir ./tmp/CuO_111_slab_Ovac.save/ :
     XML data file, charge density, pseudopotentials, collected wavefunctions
 
     init_run     :    770.27s CPU    784.47s WALL (       1 calls)
     electrons    :  62370.12s CPU  63063.34s WALL (       1 calls)

     Called by init_run:
     wfcinit      :    737.40s CPU    749.48s WALL (       1 calls)
     potinit      :      8.92s CPU      9.50s WALL (       1 calls)
     hinit0       :      3.58s CPU      3.69s WALL (       1 calls)

     Called by electrons:
     c_bands      :  49754.93s CPU  50288.11s WALL (      45 calls)
     sum_band     :  11283.77s CPU  11372.84s WALL (      45 calls)
     v_of_rho     :    185.50s CPU    195.34s WALL (      46 calls)
     newd         :    889.39s CPU    950.61s WALL (      46 calls)
     PAW_pot      :    212.76s CPU    213.36s WALL (      46 calls)
     mix_rho      :     54.02s CPU     54.39s WALL (      45 calls)

     Called by c_bands:
     init_us_2    :   1058.56s CPU   1061.97s WALL (    3680 calls)
     cegterg      :  46637.33s CPU  47162.49s WALL (    1800 calls)

     Called by *egterg:
     cdiaghg      :    163.58s CPU    164.04s WALL (    6997 calls)
     h_psi        :  35378.61s CPU  35604.29s WALL (    7037 calls)
     s_psi        :   2927.27s CPU   2935.27s WALL (    7077 calls)
     g_psi        :    114.70s CPU    114.99s WALL (    5197 calls)

     Called by h_psi:
     h_psi:calbec :   2824.43s CPU   2833.18s WALL (    7037 calls)
     vloc_psi     :  24771.80s CPU  24835.52s WALL (    7037 calls)
     add_vuspsi   :   2893.85s CPU   2902.00s WALL (    7037 calls)
     vhpsi        :   4710.36s CPU   4723.36s WALL (    7037 calls)

     General routines
     calbec       :   5018.05s CPU   5033.24s WALL (   17714 calls)
     fft          :     57.13s CPU     57.30s WALL (    1144 calls)
     ffts         :      2.52s CPU      2.53s WALL (     182 calls)
     fftw         :  18821.96s CPU  18868.08s WALL ( 1502632 calls)
     interpolate  :      9.59s CPU      9.68s WALL (      92 calls)
 
     Parallel routines

     Hubbard U routines
     new_ns       :    478.25s CPU    480.23s WALL (      45 calls)
     vhpsi        :   4710.36s CPU   4723.36s WALL (    7037 calls)
 
     PWSCF        :     17h32m CPU     17h44m WALL

 
   This run was terminated on:   5:20:36  10Jan2026            

=------------------------------------------------------------------------------=
   JOB DONE.
=------------------------------------------------------------------------------=
